<?xml version="1.0" encoding="UTF-8"?>

<!-- generated on 2022-07-30 14:54:03 by Eclipse SUMO GUI Version 1.13.0
<configuration xmlns:xsi="http://www.w3.org/2001/XMLSchema-instance" xsi:noNamespaceSchemaLocation="http://sumo.dlr.de/xsd/sumoConfiguration.xsd">

    <input>
        <net-file value="net.net.xml"/>
        <route-files value="routes.rou.xml"/>
    </input>

    <output>
        <tripinfo-output value="raw_data/(0,3,0)tripinfo.xml"/>
    </output>

    <time>
        <begin value="0"/>
        <step-length value="0.1"/>
    </time>

    <processing>
        <collision.action value="warn"/>
        <collision.stoptime value="1"/>
        <collision.mingap-factor value="1"/>
    </processing>

    <report>
        <verbose value="false"/>
        <log value="log.txt"/>
        <duration-log.statistics value="true"/>
        <no-step-log value="true"/>
    </report>

    <traci_server>
        <remote-port value="9794"/>
    </traci_server>

    <gui_only>
        <tracker-interval value="0.1"/>
    </gui_only>

</configuration>
-->

<tripinfos xmlns:xsi="http://www.w3.org/2001/XMLSchema-instance" xsi:noNamespaceSchemaLocation="http://sumo.dlr.de/xsd/tripinfo_file.xsd">
    <tripinfo id="A0" depart="1.00" departLane="wc_0" departPos="5.10" departSpeed="10.00" departDelay="0.00" arrival="253.50" arrivalLane="ce_0" arrivalPos="992.80" arrivalSpeed="8.13" duration="252.50" routeLength="1994.90" waitingTime="0.00" waitingCount="0" stopTime="0.00" timeLoss="52.98" rerouteNo="0" devices="tripinfo_A0" vType="typeCar@A0" speedFactor="1.00" vaporized=""/>
    <tripinfo id="A1" depart="4.00" departLane="wc_0" departPos="5.10" departSpeed="10.00" departDelay="0.00" arrival="254.50" arrivalLane="ce_0" arrivalPos="992.80" arrivalSpeed="7.99" duration="250.50" routeLength="1994.90" waitingTime="0.00" waitingCount="0" stopTime="0.00" timeLoss="50.98" rerouteNo="0" devices="tripinfo_A1" vType="typeCar@A1" speedFactor="1.00" vaporized=""/>
    <tripinfo id="A2" depart="5.70" departLane="wc_0" departPos="5.10" departSpeed="10.00" departDelay="0.70" arrival="255.50" arrivalLane="ce_0" arrivalPos="992.80" arrivalSpeed="7.96" duration="249.80" routeLength="1994.90" waitingTime="0.00" waitingCount="0" stopTime="0.00" timeLoss="50.28" rerouteNo="0" devices="tripinfo_A2" vType="typeCar@A2" speedFactor="1.00" vaporized=""/>
    <tripinfo id="A3" depart="8.40" departLane="wc_0" departPos="5.10" departSpeed="10.00" departDelay="2.40" arrival="256.50" arrivalLane="ce_0" arrivalPos="992.80" arrivalSpeed="7.82" duration="248.10" routeLength="1994.90" waitingTime="0.00" waitingCount="0" stopTime="0.00" timeLoss="48.58" rerouteNo="0" devices="tripinfo_A3" vType="typeCar@A3" speedFactor="1.00" vaporized=""/>
    <tripinfo id="A4" depart="10.70" departLane="wc_0" departPos="5.10" departSpeed="10.00" departDelay="2.70" arrival="257.50" arrivalLane="ce_0" arrivalPos="992.80" arrivalSpeed="7.80" duration="246.80" routeLength="1994.90" waitingTime="0.00" waitingCount="0" stopTime="0.00" timeLoss="47.28" rerouteNo="0" devices="tripinfo_A4" vType="typeCar@A4" speedFactor="1.00" vaporized=""/>
    <tripinfo id="A5" depart="12.40" departLane="wc_0" departPos="5.10" departSpeed="10.00" departDelay="1.40" arrival="258.50" arrivalLane="ce_0" arrivalPos="992.80" arrivalSpeed="7.88" duration="246.10" routeLength="1994.90" waitingTime="0.00" waitingCount="0" stopTime="0.00" timeLoss="46.58" rerouteNo="0" devices="tripinfo_A5" vType="typeCar@A5" speedFactor="1.00" vaporized=""/>
    <tripinfo id="A6" depart="14.10" departLane="wc_0" departPos="5.10" departSpeed="10.00" departDelay="1.10" arrival="259.50" arrivalLane="ce_0" arrivalPos="992.80" arrivalSpeed="8.12" duration="245.40" routeLength="1994.90" waitingTime="0.00" waitingCount="0" stopTime="0.00" timeLoss="45.88" rerouteNo="0" devices="tripinfo_A6" vType="typeCar@A6" speedFactor="1.00" vaporized=""/>
    <tripinfo id="A7" depart="16.00" departLane="wc_0" departPos="5.10" departSpeed="10.00" departDelay="0.00" arrival="260.50" arrivalLane="ce_0" arrivalPos="992.80" arrivalSpeed="7.72" duration="244.50" routeLength="1994.90" waitingTime="0.00" waitingCount="0" stopTime="0.00" timeLoss="44.98" rerouteNo="0" devices="tripinfo_A7" vType="typeCar@A7" speedFactor="1.00" vaporized=""/>
    <tripinfo id="A8" depart="17.70" departLane="wc_0" departPos="5.10" departSpeed="10.00" departDelay="0.70" arrival="261.50" arrivalLane="ce_0" arrivalPos="992.80" arrivalSpeed="8.13" duration="243.80" routeLength="1994.90" waitingTime="0.00" waitingCount="0" stopTime="0.00" timeLoss="44.28" rerouteNo="0" devices="tripinfo_A8" vType="typeCar@A8" speedFactor="1.00" vaporized=""/>
    <tripinfo id="A9" depart="21.00" departLane="wc_0" departPos="5.10" departSpeed="10.00" departDelay="0.00" arrival="262.50" arrivalLane="ce_0" arrivalPos="992.80" arrivalSpeed="7.83" duration="241.50" routeLength="1994.90" waitingTime="0.00" waitingCount="0" stopTime="0.00" timeLoss="41.98" rerouteNo="0" devices="tripinfo_A9" vType="typeCar@A9" speedFactor="1.00" vaporized=""/>
    <tripinfo id="B10" depart="22.70" departLane="wc_0" departPos="5.10" departSpeed="10.00" departDelay="0.70" arrival="263.50" arrivalLane="ce_0" arrivalPos="992.80" arrivalSpeed="8.13" duration="240.80" routeLength="1994.90" waitingTime="0.00" waitingCount="0" stopTime="0.00" timeLoss="41.28" rerouteNo="0" devices="tripinfo_B10" vType="typeCar@B10" speedFactor="1.00" vaporized=""/>
    <tripinfo id="B11" depart="24.40" departLane="wc_0" departPos="5.10" departSpeed="10.00" departDelay="1.40" arrival="264.50" arrivalLane="ce_0" arrivalPos="992.80" arrivalSpeed="7.93" duration="240.10" routeLength="1994.90" waitingTime="0.00" waitingCount="0" stopTime="0.00" timeLoss="40.58" rerouteNo="0" devices="tripinfo_B11" vType="typeCar@B11" speedFactor="1.00" vaporized=""/>
    <tripinfo id="B12" depart="26.10" departLane="wc_0" departPos="5.10" departSpeed="10.00" departDelay="1.10" arrival="265.50" arrivalLane="ce_0" arrivalPos="992.80" arrivalSpeed="7.91" duration="239.40" routeLength="1994.90" waitingTime="0.00" waitingCount="0" stopTime="0.00" timeLoss="39.88" rerouteNo="0" devices="tripinfo_B12" vType="typeCar@B12" speedFactor="1.00" vaporized=""/>
    <tripinfo id="B13" depart="27.80" departLane="wc_0" departPos="5.10" departSpeed="10.00" departDelay="1.80" arrival="266.50" arrivalLane="ce_0" arrivalPos="992.80" arrivalSpeed="7.84" duration="238.70" routeLength="1994.90" waitingTime="0.00" waitingCount="0" stopTime="0.00" timeLoss="39.18" rerouteNo="0" devices="tripinfo_B13" vType="typeCar@B13" speedFactor="1.00" vaporized=""/>
    <tripinfo id="B14" depart="29.50" departLane="wc_0" departPos="5.10" departSpeed="10.00" departDelay="1.50" arrival="267.50" arrivalLane="ce_0" arrivalPos="992.80" arrivalSpeed="8.11" duration="238.00" routeLength="1994.90" waitingTime="0.00" waitingCount="0" stopTime="0.00" timeLoss="38.48" rerouteNo="0" devices="tripinfo_B14" vType="typeCar@B14" speedFactor="1.00" vaporized=""/>
    <tripinfo id="B15" depart="31.20" departLane="wc_0" departPos="5.10" departSpeed="10.00" departDelay="2.20" arrival="268.50" arrivalLane="ce_0" arrivalPos="992.80" arrivalSpeed="7.87" duration="237.30" routeLength="1994.90" waitingTime="0.00" waitingCount="0" stopTime="0.00" timeLoss="37.78" rerouteNo="0" devices="tripinfo_B15" vType="typeCar@B15" speedFactor="1.00" vaporized=""/>
    <tripinfo id="B16" depart="32.90" departLane="wc_0" departPos="5.10" departSpeed="10.00" departDelay="1.90" arrival="269.50" arrivalLane="ce_0" arrivalPos="992.80" arrivalSpeed="7.95" duration="236.60" routeLength="1994.90" waitingTime="0.00" waitingCount="0" stopTime="0.00" timeLoss="37.08" rerouteNo="0" devices="tripinfo_B16" vType="typeCar@B16" speedFactor="1.00" vaporized=""/>
    <tripinfo id="B17" depart="34.60" departLane="wc_0" departPos="5.10" departSpeed="10.00" departDelay="1.60" arrival="270.50" arrivalLane="ce_0" arrivalPos="992.80" arrivalSpeed="8.00" duration="235.90" routeLength="1994.90" waitingTime="0.00" waitingCount="0" stopTime="0.00" timeLoss="36.38" rerouteNo="0" devices="tripinfo_B17" vType="typeCar@B17" speedFactor="1.00" vaporized=""/>
    <tripinfo id="B18" depart="36.30" departLane="wc_0" departPos="5.10" departSpeed="10.00" departDelay="2.30" arrival="271.50" arrivalLane="ce_0" arrivalPos="992.80" arrivalSpeed="7.73" duration="235.20" routeLength="1994.90" waitingTime="0.00" waitingCount="0" stopTime="0.00" timeLoss="35.68" rerouteNo="0" devices="tripinfo_B18" vType="typeCar@B18" speedFactor="1.00" vaporized=""/>
    <tripinfo id="B19" depart="38.00" departLane="wc_0" departPos="5.10" departSpeed="10.00" departDelay="3.00" arrival="272.50" arrivalLane="ce_0" arrivalPos="992.80" arrivalSpeed="7.76" duration="234.50" routeLength="1994.90" waitingTime="0.00" waitingCount="0" stopTime="0.00" timeLoss="34.98" rerouteNo="0" devices="tripinfo_B19" vType="typeCar@B19" speedFactor="1.00" vaporized=""/>
    <tripinfo id="C20" depart="39.70" departLane="wc_0" departPos="5.10" departSpeed="10.00" departDelay="0.70" arrival="273.50" arrivalLane="ce_0" arrivalPos="992.80" arrivalSpeed="7.96" duration="233.80" routeLength="1994.90" waitingTime="0.00" waitingCount="0" stopTime="0.00" timeLoss="34.28" rerouteNo="0" devices="tripinfo_C20" vType="typeCar@C20" speedFactor="1.00" vaporized=""/>
    <tripinfo id="C21" depart="41.40" departLane="wc_0" departPos="5.10" departSpeed="10.00" departDelay="1.40" arrival="274.50" arrivalLane="ce_0" arrivalPos="992.80" arrivalSpeed="8.02" duration="233.10" routeLength="1994.90" waitingTime="0.00" waitingCount="0" stopTime="0.00" timeLoss="33.58" rerouteNo="0" devices="tripinfo_C21" vType="typeCar@C21" speedFactor="1.00" vaporized=""/>
    <tripinfo id="C22" depart="43.10" departLane="wc_0" departPos="5.10" departSpeed="10.00" departDelay="2.10" arrival="275.50" arrivalLane="ce_0" arrivalPos="992.80" arrivalSpeed="7.75" duration="232.40" routeLength="1994.90" waitingTime="0.00" waitingCount="0" stopTime="0.00" timeLoss="32.88" rerouteNo="0" devices="tripinfo_C22" vType="typeCar@C22" speedFactor="1.00" vaporized=""/>
    <tripinfo id="C23" depart="44.80" departLane="wc_0" departPos="5.10" departSpeed="10.00" departDelay="2.80" arrival="276.50" arrivalLane="ce_0" arrivalPos="992.80" arrivalSpeed="8.10" duration="231.70" routeLength="1994.90" waitingTime="0.00" waitingCount="0" stopTime="0.00" timeLoss="32.18" rerouteNo="0" devices="tripinfo_C23" vType="typeCar@C23" speedFactor="1.00" vaporized=""/>
    <tripinfo id="C24" depart="46.50" departLane="wc_0" departPos="5.10" departSpeed="10.00" departDelay="2.50" arrival="277.50" arrivalLane="ce_0" arrivalPos="992.80" arrivalSpeed="7.85" duration="231.00" routeLength="1994.90" waitingTime="0.00" waitingCount="0" stopTime="0.00" timeLoss="31.48" rerouteNo="0" devices="tripinfo_C24" vType="typeCar@C24" speedFactor="1.00" vaporized=""/>
    <tripinfo id="C25" depart="48.20" departLane="wc_0" departPos="5.10" departSpeed="10.00" departDelay="3.20" arrival="278.50" arrivalLane="ce_0" arrivalPos="992.80" arrivalSpeed="8.00" duration="230.30" routeLength="1994.90" waitingTime="0.00" waitingCount="0" stopTime="0.00" timeLoss="30.78" rerouteNo="0" devices="tripinfo_C25" vType="typeCar@C25" speedFactor="1.00" vaporized=""/>
    <tripinfo id="C26" depart="49.90" departLane="wc_0" departPos="5.10" departSpeed="10.00" departDelay="2.90" arrival="279.50" arrivalLane="ce_0" arrivalPos="992.80" arrivalSpeed="7.80" duration="229.60" routeLength="1994.90" waitingTime="0.00" waitingCount="0" stopTime="0.00" timeLoss="30.08" rerouteNo="0" devices="tripinfo_C26" vType="typeCar@C26" speedFactor="1.00" vaporized=""/>
    <tripinfo id="C27" depart="51.60" departLane="wc_0" departPos="5.10" departSpeed="10.00" departDelay="1.60" arrival="280.50" arrivalLane="ce_0" arrivalPos="992.80" arrivalSpeed="7.92" duration="228.90" routeLength="1994.90" waitingTime="0.00" waitingCount="0" stopTime="0.00" timeLoss="29.38" rerouteNo="0" devices="tripinfo_C27" vType="typeCar@C27" speedFactor="1.00" vaporized=""/>
    <tripinfo id="C28" depart="53.30" departLane="wc_0" departPos="5.10" departSpeed="10.00" departDelay="1.30" arrival="281.50" arrivalLane="ce_0" arrivalPos="992.80" arrivalSpeed="7.82" duration="228.20" routeLength="1994.90" waitingTime="0.00" waitingCount="0" stopTime="0.00" timeLoss="28.68" rerouteNo="0" devices="tripinfo_C28" vType="typeCar@C28" speedFactor="1.00" vaporized=""/>
    <tripinfo id="C29" depart="55.00" departLane="wc_0" departPos="5.10" departSpeed="10.00" departDelay="2.00" arrival="282.50" arrivalLane="ce_0" arrivalPos="992.80" arrivalSpeed="7.81" duration="227.50" routeLength="1994.90" waitingTime="0.00" waitingCount="0" stopTime="0.00" timeLoss="27.98" rerouteNo="0" devices="tripinfo_C29" vType="typeCar@C29" speedFactor="1.00" vaporized=""/>
    <tripinfo id="D30" depart="56.70" departLane="wc_0" departPos="5.10" departSpeed="10.00" departDelay="2.70" arrival="283.50" arrivalLane="ce_0" arrivalPos="992.80" arrivalSpeed="7.75" duration="226.80" routeLength="1994.90" waitingTime="0.00" waitingCount="0" stopTime="0.00" timeLoss="27.28" rerouteNo="0" devices="tripinfo_D30" vType="typeCar@D30" speedFactor="1.00" vaporized=""/>
    <tripinfo id="D31" depart="58.40" departLane="wc_0" departPos="5.10" departSpeed="10.00" departDelay="2.40" arrival="284.50" arrivalLane="ce_0" arrivalPos="992.80" arrivalSpeed="8.04" duration="226.10" routeLength="1994.90" waitingTime="0.00" waitingCount="0" stopTime="0.00" timeLoss="26.58" rerouteNo="0" devices="tripinfo_D31" vType="typeCar@D31" speedFactor="1.00" vaporized=""/>
    <tripinfo id="D32" depart="60.10" departLane="wc_0" departPos="5.10" departSpeed="10.00" departDelay="2.10" arrival="285.50" arrivalLane="ce_0" arrivalPos="992.80" arrivalSpeed="8.06" duration="225.40" routeLength="1994.90" waitingTime="0.00" waitingCount="0" stopTime="0.00" timeLoss="25.88" rerouteNo="0" devices="tripinfo_D32" vType="typeCar@D32" speedFactor="1.00" vaporized=""/>
    <tripinfo id="D33" depart="62.00" departLane="wc_0" departPos="5.10" departSpeed="10.00" departDelay="0.00" arrival="286.50" arrivalLane="ce_0" arrivalPos="992.80" arrivalSpeed="8.18" duration="224.50" routeLength="1994.90" waitingTime="0.00" waitingCount="0" stopTime="0.00" timeLoss="24.98" rerouteNo="0" devices="tripinfo_D33" vType="typeCar@D33" speedFactor="1.00" vaporized=""/>
    <tripinfo id="D34" depart="63.70" departLane="wc_0" departPos="5.10" departSpeed="10.00" departDelay="0.70" arrival="287.50" arrivalLane="ce_0" arrivalPos="992.80" arrivalSpeed="8.02" duration="223.80" routeLength="1994.90" waitingTime="0.00" waitingCount="0" stopTime="0.00" timeLoss="24.28" rerouteNo="0" devices="tripinfo_D34" vType="typeCar@D34" speedFactor="1.00" vaporized=""/>
    <tripinfo id="D35" depart="65.40" departLane="wc_0" departPos="5.10" departSpeed="10.00" departDelay="0.40" arrival="288.50" arrivalLane="ce_0" arrivalPos="992.80" arrivalSpeed="7.88" duration="223.10" routeLength="1994.90" waitingTime="0.00" waitingCount="0" stopTime="0.00" timeLoss="23.58" rerouteNo="0" devices="tripinfo_D35" vType="typeCar@D35" speedFactor="1.00" vaporized=""/>
    <tripinfo id="D36" depart="67.10" departLane="wc_0" departPos="5.10" departSpeed="10.00" departDelay="0.10" arrival="289.50" arrivalLane="ce_0" arrivalPos="992.80" arrivalSpeed="8.13" duration="222.40" routeLength="1994.90" waitingTime="0.00" waitingCount="0" stopTime="0.00" timeLoss="22.88" rerouteNo="0" devices="tripinfo_D36" vType="typeCar@D36" speedFactor="1.00" vaporized=""/>
    <tripinfo id="D37" depart="68.80" departLane="wc_0" departPos="5.10" departSpeed="10.00" departDelay="0.80" arrival="290.50" arrivalLane="ce_0" arrivalPos="992.80" arrivalSpeed="8.05" duration="221.70" routeLength="1994.90" waitingTime="0.00" waitingCount="0" stopTime="0.00" timeLoss="22.18" rerouteNo="0" devices="tripinfo_D37" vType="typeCar@D37" speedFactor="1.00" vaporized=""/>
    <tripinfo id="D38" depart="70.50" departLane="wc_0" departPos="5.10" departSpeed="10.00" departDelay="0.50" arrival="291.50" arrivalLane="ce_0" arrivalPos="992.80" arrivalSpeed="8.12" duration="221.00" routeLength="1994.90" waitingTime="0.00" waitingCount="0" stopTime="0.00" timeLoss="21.48" rerouteNo="0" devices="tripinfo_D38" vType="typeCar@D38" speedFactor="1.00" vaporized=""/>
    <tripinfo id="D39" depart="72.20" departLane="wc_0" departPos="5.10" departSpeed="10.00" departDelay="1.20" arrival="292.50" arrivalLane="ce_0" arrivalPos="992.80" arrivalSpeed="8.05" duration="220.30" routeLength="1994.90" waitingTime="0.00" waitingCount="0" stopTime="0.00" timeLoss="20.78" rerouteNo="0" devices="tripinfo_D39" vType="typeCar@D39" speedFactor="1.00" vaporized=""/>
    <tripinfo id="E40" depart="73.90" departLane="wc_0" departPos="5.10" departSpeed="10.00" departDelay="1.90" arrival="293.50" arrivalLane="ce_0" arrivalPos="992.80" arrivalSpeed="7.93" duration="219.60" routeLength="1994.90" waitingTime="0.00" waitingCount="0" stopTime="0.00" timeLoss="20.08" rerouteNo="0" devices="tripinfo_E40" vType="typeCar@E40" speedFactor="1.00" vaporized=""/>
    <tripinfo id="E41" depart="75.60" departLane="wc_0" departPos="5.10" departSpeed="10.00" departDelay="2.60" arrival="294.50" arrivalLane="ce_0" arrivalPos="992.80" arrivalSpeed="7.85" duration="218.90" routeLength="1994.90" waitingTime="0.00" waitingCount="0" stopTime="0.00" timeLoss="19.38" rerouteNo="0" devices="tripinfo_E41" vType="typeCar@E41" speedFactor="1.00" vaporized=""/>
    <tripinfo id="E42" depart="77.30" departLane="wc_0" departPos="5.10" departSpeed="10.00" departDelay="3.30" arrival="295.50" arrivalLane="ce_0" arrivalPos="992.80" arrivalSpeed="8.07" duration="218.20" routeLength="1994.90" waitingTime="0.00" waitingCount="0" stopTime="0.00" timeLoss="18.68" rerouteNo="0" devices="tripinfo_E42" vType="typeCar@E42" speedFactor="1.00" vaporized=""/>
    <tripinfo id="E43" depart="79.00" departLane="wc_0" departPos="5.10" departSpeed="10.00" departDelay="3.00" arrival="296.50" arrivalLane="ce_0" arrivalPos="992.80" arrivalSpeed="8.09" duration="217.50" routeLength="1994.90" waitingTime="0.00" waitingCount="0" stopTime="0.00" timeLoss="17.98" rerouteNo="0" devices="tripinfo_E43" vType="typeCar@E43" speedFactor="1.00" vaporized=""/>
    <tripinfo id="E44" depart="80.70" departLane="wc_0" departPos="5.10" departSpeed="10.00" departDelay="3.70" arrival="297.50" arrivalLane="ce_0" arrivalPos="992.80" arrivalSpeed="7.82" duration="216.80" routeLength="1994.90" waitingTime="0.00" waitingCount="0" stopTime="0.00" timeLoss="17.28" rerouteNo="0" devices="tripinfo_E44" vType="typeCar@E44" speedFactor="1.00" vaporized=""/>
    <tripinfo id="E45" depart="82.40" departLane="wc_0" departPos="5.10" departSpeed="10.00" departDelay="4.40" arrival="298.50" arrivalLane="ce_0" arrivalPos="992.80" arrivalSpeed="8.15" duration="216.10" routeLength="1994.90" waitingTime="0.00" waitingCount="0" stopTime="0.00" timeLoss="16.58" rerouteNo="0" devices="tripinfo_E45" vType="typeCar@E45" speedFactor="1.00" vaporized=""/>
    <tripinfo id="E46" depart="84.10" departLane="wc_0" departPos="5.10" departSpeed="10.00" departDelay="5.10" arrival="299.50" arrivalLane="ce_0" arrivalPos="992.80" arrivalSpeed="8.19" duration="215.40" routeLength="1994.90" waitingTime="0.00" waitingCount="0" stopTime="0.00" timeLoss="15.88" rerouteNo="0" devices="tripinfo_E46" vType="typeCar@E46" speedFactor="1.00" vaporized=""/>
    <tripinfo id="E47" depart="85.80" departLane="wc_0" departPos="5.10" departSpeed="10.00" departDelay="5.80" arrival="300.50" arrivalLane="ce_0" arrivalPos="992.80" arrivalSpeed="8.19" duration="214.70" routeLength="1994.90" waitingTime="0.00" waitingCount="0" stopTime="0.00" timeLoss="15.18" rerouteNo="0" devices="tripinfo_E47" vType="typeCar@E47" speedFactor="1.00" vaporized=""/>
    <tripinfo id="E48" depart="87.50" departLane="wc_0" departPos="5.10" departSpeed="10.00" departDelay="6.50" arrival="301.50" arrivalLane="ce_0" arrivalPos="992.80" arrivalSpeed="8.14" duration="214.00" routeLength="1994.90" waitingTime="0.00" waitingCount="0" stopTime="0.00" timeLoss="14.48" rerouteNo="0" devices="tripinfo_E48" vType="typeCar@E48" speedFactor="1.00" vaporized=""/>
    <tripinfo id="E49" depart="89.20" departLane="wc_0" departPos="5.10" departSpeed="10.00" departDelay="6.20" arrival="302.50" arrivalLane="ce_0" arrivalPos="992.80" arrivalSpeed="8.02" duration="213.30" routeLength="1994.90" waitingTime="0.00" waitingCount="0" stopTime="0.00" timeLoss="13.78" rerouteNo="0" devices="tripinfo_E49" vType="typeCar@E49" speedFactor="1.00" vaporized=""/>
    <tripinfo id="F50" depart="90.90" departLane="wc_0" departPos="5.10" departSpeed="10.00" departDelay="6.90" arrival="303.50" arrivalLane="ce_0" arrivalPos="992.80" arrivalSpeed="8.16" duration="212.60" routeLength="1994.90" waitingTime="0.00" waitingCount="0" stopTime="0.00" timeLoss="13.08" rerouteNo="0" devices="tripinfo_F50" vType="typeCar@F50" speedFactor="1.00" vaporized=""/>
    <tripinfo id="F51" depart="92.60" departLane="wc_0" departPos="5.10" departSpeed="10.00" departDelay="6.60" arrival="304.50" arrivalLane="ce_0" arrivalPos="992.80" arrivalSpeed="7.94" duration="211.90" routeLength="1994.90" waitingTime="0.00" waitingCount="0" stopTime="0.00" timeLoss="12.38" rerouteNo="0" devices="tripinfo_F51" vType="typeCar@F51" speedFactor="1.00" vaporized=""/>
    <tripinfo id="F52" depart="94.30" departLane="wc_0" departPos="5.10" departSpeed="10.00" departDelay="6.30" arrival="305.50" arrivalLane="ce_0" arrivalPos="992.80" arrivalSpeed="8.05" duration="211.20" routeLength="1994.90" waitingTime="0.00" waitingCount="0" stopTime="0.00" timeLoss="11.68" rerouteNo="0" devices="tripinfo_F52" vType="typeCar@F52" speedFactor="1.00" vaporized=""/>
    <tripinfo id="F53" depart="96.00" departLane="wc_0" departPos="5.10" departSpeed="10.00" departDelay="7.00" arrival="306.50" arrivalLane="ce_0" arrivalPos="992.80" arrivalSpeed="8.02" duration="210.50" routeLength="1994.90" waitingTime="0.00" waitingCount="0" stopTime="0.00" timeLoss="10.98" rerouteNo="0" devices="tripinfo_F53" vType="typeCar@F53" speedFactor="1.00" vaporized=""/>
    <tripinfo id="F54" depart="97.70" departLane="wc_0" departPos="5.10" departSpeed="10.00" departDelay="5.70" arrival="307.50" arrivalLane="ce_0" arrivalPos="992.80" arrivalSpeed="8.08" duration="209.80" routeLength="1994.90" waitingTime="0.00" waitingCount="0" stopTime="0.00" timeLoss="10.28" rerouteNo="0" devices="tripinfo_F54" vType="typeCar@F54" speedFactor="1.00" vaporized=""/>
    <tripinfo id="F55" depart="99.40" departLane="wc_0" departPos="5.10" departSpeed="10.00" departDelay="5.40" arrival="308.50" arrivalLane="ce_0" arrivalPos="992.80" arrivalSpeed="8.15" duration="209.10" routeLength="1994.90" waitingTime="0.00" waitingCount="0" stopTime="0.00" timeLoss="9.58" rerouteNo="0" devices="tripinfo_F55" vType="typeCar@F55" speedFactor="1.00" vaporized=""/>
    <tripinfo id="F56" depart="101.10" departLane="wc_0" departPos="5.10" departSpeed="10.00" departDelay="6.10" arrival="309.50" arrivalLane="ce_0" arrivalPos="992.80" arrivalSpeed="8.01" duration="208.40" routeLength="1994.90" waitingTime="0.00" waitingCount="0" stopTime="0.00" timeLoss="8.88" rerouteNo="0" devices="tripinfo_F56" vType="typeCar@F56" speedFactor="1.00" vaporized=""/>
    <tripinfo id="F57" depart="102.80" departLane="wc_0" departPos="5.10" departSpeed="10.00" departDelay="6.80" arrival="310.50" arrivalLane="ce_0" arrivalPos="992.80" arrivalSpeed="8.08" duration="207.70" routeLength="1994.90" waitingTime="0.00" waitingCount="0" stopTime="0.00" timeLoss="8.18" rerouteNo="0" devices="tripinfo_F57" vType="typeCar@F57" speedFactor="1.00" vaporized=""/>
    <tripinfo id="F58" depart="104.50" departLane="wc_0" departPos="5.10" departSpeed="10.00" departDelay="7.50" arrival="311.50" arrivalLane="ce_0" arrivalPos="992.80" arrivalSpeed="7.86" duration="207.00" routeLength="1994.90" waitingTime="0.00" waitingCount="0" stopTime="0.00" timeLoss="7.48" rerouteNo="0" devices="tripinfo_F58" vType="typeCar@F58" speedFactor="1.00" vaporized=""/>
    <tripinfo id="F59" depart="106.20" departLane="wc_0" departPos="5.10" departSpeed="10.00" departDelay="8.20" arrival="312.50" arrivalLane="ce_0" arrivalPos="992.80" arrivalSpeed="8.11" duration="206.30" routeLength="1994.90" waitingTime="0.00" waitingCount="0" stopTime="0.00" timeLoss="6.78" rerouteNo="0" devices="tripinfo_F59" vType="typeCar@F59" speedFactor="1.00" vaporized=""/>
</tripinfos>
