<?xml version="1.0" encoding="UTF-8"?>

<!-- generated on 2022-09-29 17:45:46 by Eclipse SUMO GUI Version 1.13.0
<configuration xmlns:xsi="http://www.w3.org/2001/XMLSchema-instance" xsi:noNamespaceSchemaLocation="http://sumo.dlr.de/xsd/sumoConfiguration.xsd">

    <input>
        <net-file value="net.net.xml"/>
        <route-files value="routes.rou.xml"/>
    </input>

    <output>
        <tripinfo-output value="raw_data/(1,1,0)tripinfo.xml"/>
    </output>

    <time>
        <begin value="0"/>
        <step-length value="0.1"/>
    </time>

    <processing>
        <extrapolate-departpos value="true"/>
        <ignore-route-errors value="true"/>
        <collision.action value="warn"/>
        <collision.stoptime value="1"/>
        <collision.mingap-factor value="0.1"/>
    </processing>

    <report>
        <verbose value="false"/>
        <log value="log.txt"/>
        <duration-log.statistics value="true"/>
        <no-step-log value="true"/>
    </report>

    <traci_server>
        <remote-port value="14886"/>
    </traci_server>

    <gui_only>
        <tracker-interval value="0.1"/>
    </gui_only>

</configuration>
-->

<tripinfos xmlns:xsi="http://www.w3.org/2001/XMLSchema-instance" xsi:noNamespaceSchemaLocation="http://sumo.dlr.de/xsd/tripinfo_file.xsd">
    <tripinfo id="A0" depart="0.00" departLane="sc_0" departPos="5.10" departSpeed="10.00" departDelay="0.00" arrival="51.60" arrivalLane="cn_0" arrivalPos="192.80" arrivalSpeed="10.00" duration="51.60" routeLength="394.90" waitingTime="0.00" waitingCount="0" stopTime="0.00" timeLoss="12.12" rerouteNo="0" devices="tripinfo_A0" vType="typeCar@A0" speedFactor="1.00" vaporized=""/>
    <tripinfo id="A1" depart="6.00" departLane="sc_0" departPos="5.10" departSpeed="8.00" departDelay="0.00" arrival="55.30" arrivalLane="cn_0" arrivalPos="192.80" arrivalSpeed="10.00" duration="49.30" routeLength="394.90" waitingTime="0.00" waitingCount="0" stopTime="0.00" timeLoss="9.80" rerouteNo="0" devices="tripinfo_A1" vType="typeCar@A1" speedFactor="1.00" vaporized=""/>
    <tripinfo id="A2" depart="8.00" departLane="sc_0" departPos="5.10" departSpeed="8.00" departDelay="0.00" arrival="57.00" arrivalLane="cn_0" arrivalPos="192.80" arrivalSpeed="10.00" duration="49.00" routeLength="394.90" waitingTime="0.00" waitingCount="0" stopTime="0.00" timeLoss="9.49" rerouteNo="0" devices="tripinfo_A2" vType="typeCar@A2" speedFactor="1.00" vaporized=""/>
    <tripinfo id="A4" depart="12.00" departLane="sc_0" departPos="5.10" departSpeed="8.00" departDelay="0.00" arrival="59.00" arrivalLane="cn_0" arrivalPos="192.80" arrivalSpeed="10.00" duration="47.00" routeLength="394.90" waitingTime="0.00" waitingCount="0" stopTime="0.00" timeLoss="7.51" rerouteNo="0" devices="tripinfo_A4" vType="typeCar@A4" speedFactor="1.00" vaporized=""/>
    <tripinfo id="A3" depart="12.00" departLane="wc_0" departPos="5.10" departSpeed="10.00" departDelay="0.00" arrival="69.60" arrivalLane="ce_0" arrivalPos="192.80" arrivalSpeed="10.00" duration="57.60" routeLength="394.90" waitingTime="0.00" waitingCount="0" stopTime="0.00" timeLoss="18.09" rerouteNo="0" devices="tripinfo_A3" vType="typeCar@A3" speedFactor="1.00" vaporized=""/>
    <tripinfo id="A7" depart="26.00" departLane="wc_0" departPos="5.10" departSpeed="8.00" departDelay="0.00" arrival="74.90" arrivalLane="ce_0" arrivalPos="192.80" arrivalSpeed="10.00" duration="48.90" routeLength="394.90" waitingTime="0.00" waitingCount="0" stopTime="0.00" timeLoss="9.41" rerouteNo="0" devices="tripinfo_A7" vType="typeCar@A7" speedFactor="1.00" vaporized=""/>
    <tripinfo id="A5" depart="18.00" departLane="sc_0" departPos="5.10" departSpeed="6.24" departDelay="0.00" arrival="78.30" arrivalLane="cn_0" arrivalPos="192.80" arrivalSpeed="10.00" duration="60.30" routeLength="394.90" waitingTime="1.40" waitingCount="1" stopTime="0.00" timeLoss="20.81" rerouteNo="0" devices="tripinfo_A5" vType="typeCar@A5" speedFactor="1.00" vaporized=""/>
    <tripinfo id="A6" depart="22.00" departLane="sc_0" departPos="5.10" departSpeed="8.00" departDelay="0.00" arrival="88.30" arrivalLane="cn_0" arrivalPos="192.80" arrivalSpeed="10.00" duration="66.30" routeLength="394.90" waitingTime="0.20" waitingCount="1" stopTime="0.00" timeLoss="26.82" rerouteNo="0" devices="tripinfo_A6" vType="typeCar@A6" speedFactor="1.00" vaporized=""/>
    <tripinfo id="A8" depart="26.00" departLane="sc_0" departPos="5.10" departSpeed="8.00" departDelay="0.00" arrival="89.70" arrivalLane="cn_0" arrivalPos="192.80" arrivalSpeed="10.00" duration="63.70" routeLength="394.90" waitingTime="0.00" waitingCount="0" stopTime="0.00" timeLoss="24.21" rerouteNo="0" devices="tripinfo_A8" vType="typeCar@A8" speedFactor="1.00" vaporized=""/>
    <tripinfo id="A9" depart="40.00" departLane="sc_0" departPos="5.10" departSpeed="8.00" departDelay="0.00" arrival="94.10" arrivalLane="cn_0" arrivalPos="192.80" arrivalSpeed="10.00" duration="54.10" routeLength="394.90" waitingTime="0.00" waitingCount="0" stopTime="0.00" timeLoss="14.61" rerouteNo="0" devices="tripinfo_A9" vType="typeCar@A9" speedFactor="1.00" vaporized=""/>
    <tripinfo id="B10" depart="44.00" departLane="wc_0" departPos="5.10" departSpeed="8.00" departDelay="0.00" arrival="110.80" arrivalLane="ce_0" arrivalPos="192.80" arrivalSpeed="10.00" duration="66.80" routeLength="394.90" waitingTime="0.00" waitingCount="0" stopTime="0.00" timeLoss="27.27" rerouteNo="0" devices="tripinfo_B10" vType="typeCar@B10" speedFactor="1.00" vaporized=""/>
    <tripinfo id="B14" depart="66.00" departLane="sc_0" departPos="5.10" departSpeed="2.34" departDelay="0.00" arrival="113.80" arrivalLane="cn_0" arrivalPos="192.80" arrivalSpeed="10.00" duration="47.80" routeLength="394.90" waitingTime="0.00" waitingCount="0" stopTime="0.00" timeLoss="8.24" rerouteNo="0" devices="tripinfo_B14" vType="typeCar@B14" speedFactor="1.00" vaporized=""/>
    <tripinfo id="B11" depart="46.00" departLane="wc_0" departPos="5.10" departSpeed="8.00" departDelay="0.00" arrival="116.50" arrivalLane="ce_0" arrivalPos="192.80" arrivalSpeed="10.00" duration="70.50" routeLength="394.90" waitingTime="0.50" waitingCount="5" stopTime="0.00" timeLoss="31.01" rerouteNo="0" devices="tripinfo_B11" vType="typeCar@B11" speedFactor="1.00" vaporized=""/>
    <tripinfo id="B12" depart="56.00" departLane="wc_0" departPos="5.10" departSpeed="8.00" departDelay="0.00" arrival="118.30" arrivalLane="ce_0" arrivalPos="192.80" arrivalSpeed="10.00" duration="62.30" routeLength="394.90" waitingTime="0.00" waitingCount="0" stopTime="0.00" timeLoss="22.72" rerouteNo="0" devices="tripinfo_B12" vType="typeCar@B12" speedFactor="1.00" vaporized=""/>
    <tripinfo id="B13" depart="58.00" departLane="wc_0" departPos="5.10" departSpeed="8.00" departDelay="0.00" arrival="119.90" arrivalLane="ce_0" arrivalPos="192.80" arrivalSpeed="10.00" duration="61.90" routeLength="394.90" waitingTime="0.00" waitingCount="0" stopTime="0.00" timeLoss="22.34" rerouteNo="0" devices="tripinfo_B13" vType="typeCar@B13" speedFactor="1.00" vaporized=""/>
    <tripinfo id="B16" depart="88.00" departLane="sc_0" departPos="5.10" departSpeed="8.00" departDelay="0.00" arrival="140.70" arrivalLane="cn_0" arrivalPos="192.80" arrivalSpeed="10.00" duration="52.70" routeLength="394.90" waitingTime="0.00" waitingCount="0" stopTime="0.00" timeLoss="13.22" rerouteNo="0" devices="tripinfo_B16" vType="typeCar@B16" speedFactor="1.00" vaporized=""/>
    <tripinfo id="B15" depart="88.00" departLane="wc_0" departPos="5.10" departSpeed="2.13" departDelay="0.00" arrival="142.30" arrivalLane="ce_0" arrivalPos="192.80" arrivalSpeed="10.00" duration="54.30" routeLength="394.90" waitingTime="0.00" waitingCount="0" stopTime="0.00" timeLoss="14.80" rerouteNo="0" devices="tripinfo_B15" vType="typeCar@B15" speedFactor="1.00" vaporized=""/>
    <tripinfo id="B17" depart="90.50" departLane="wc_0" departPos="5.10" departSpeed="8.00" departDelay="0.50" arrival="143.90" arrivalLane="ce_0" arrivalPos="192.80" arrivalSpeed="10.00" duration="53.40" routeLength="394.90" waitingTime="0.00" waitingCount="0" stopTime="0.00" timeLoss="13.97" rerouteNo="0" devices="tripinfo_B17" vType="typeCar@B17" speedFactor="1.00" vaporized=""/>
    <tripinfo id="B18" depart="94.00" departLane="wc_0" departPos="5.10" departSpeed="6.91" departDelay="0.00" arrival="148.30" arrivalLane="ce_0" arrivalPos="192.80" arrivalSpeed="10.00" duration="54.30" routeLength="394.90" waitingTime="0.50" waitingCount="1" stopTime="0.00" timeLoss="14.79" rerouteNo="0" devices="tripinfo_B18" vType="typeCar@B18" speedFactor="1.00" vaporized=""/>
    <tripinfo id="B19" depart="100.00" departLane="wc_0" departPos="5.10" departSpeed="8.00" departDelay="0.00" arrival="150.20" arrivalLane="ce_0" arrivalPos="192.80" arrivalSpeed="10.00" duration="50.20" routeLength="394.90" waitingTime="0.00" waitingCount="0" stopTime="0.00" timeLoss="10.72" rerouteNo="0" devices="tripinfo_B19" vType="typeCar@B19" speedFactor="1.00" vaporized=""/>
    <tripinfo id="C20" depart="106.00" departLane="wc_0" departPos="5.10" departSpeed="8.00" departDelay="0.00" arrival="160.80" arrivalLane="ce_0" arrivalPos="192.80" arrivalSpeed="10.00" duration="54.80" routeLength="394.90" waitingTime="0.00" waitingCount="0" stopTime="0.00" timeLoss="15.31" rerouteNo="0" devices="tripinfo_C20" vType="typeCar@C20" speedFactor="1.00" vaporized=""/>
    <tripinfo id="C23" depart="124.00" departLane="wc_0" departPos="5.10" departSpeed="8.00" departDelay="0.00" arrival="170.80" arrivalLane="ce_0" arrivalPos="192.80" arrivalSpeed="10.00" duration="46.80" routeLength="394.90" waitingTime="0.00" waitingCount="0" stopTime="0.00" timeLoss="7.30" rerouteNo="0" devices="tripinfo_C23" vType="typeCar@C23" speedFactor="1.00" vaporized=""/>
    <tripinfo id="C24" depart="126.00" departLane="wc_0" departPos="5.10" departSpeed="8.00" departDelay="0.00" arrival="172.50" arrivalLane="ce_0" arrivalPos="192.80" arrivalSpeed="10.00" duration="46.50" routeLength="394.90" waitingTime="0.00" waitingCount="0" stopTime="0.00" timeLoss="6.98" rerouteNo="0" devices="tripinfo_C24" vType="typeCar@C24" speedFactor="1.00" vaporized=""/>
    <tripinfo id="C21" depart="112.00" departLane="sc_0" departPos="5.10" departSpeed="2.03" departDelay="0.00" arrival="177.10" arrivalLane="cn_0" arrivalPos="192.80" arrivalSpeed="10.00" duration="65.10" routeLength="394.90" waitingTime="0.00" waitingCount="0" stopTime="0.00" timeLoss="25.54" rerouteNo="0" devices="tripinfo_C21" vType="typeCar@C21" speedFactor="1.00" vaporized=""/>
    <tripinfo id="C22" depart="118.00" departLane="sc_0" departPos="5.10" departSpeed="8.00" departDelay="0.00" arrival="178.90" arrivalLane="cn_0" arrivalPos="192.80" arrivalSpeed="10.00" duration="60.90" routeLength="394.90" waitingTime="0.00" waitingCount="0" stopTime="0.00" timeLoss="21.35" rerouteNo="0" devices="tripinfo_C22" vType="typeCar@C22" speedFactor="1.00" vaporized=""/>
    <tripinfo id="C26" depart="134.00" departLane="wc_0" departPos="5.10" departSpeed="5.64" departDelay="0.00" arrival="184.40" arrivalLane="ce_0" arrivalPos="192.80" arrivalSpeed="10.00" duration="50.40" routeLength="394.90" waitingTime="0.00" waitingCount="0" stopTime="0.00" timeLoss="10.83" rerouteNo="0" devices="tripinfo_C26" vType="typeCar@C26" speedFactor="1.00" vaporized=""/>
    <tripinfo id="C25" depart="130.00" departLane="sc_0" departPos="5.10" departSpeed="4.48" departDelay="0.00" arrival="187.60" arrivalLane="cn_0" arrivalPos="192.80" arrivalSpeed="10.00" duration="57.60" routeLength="394.90" waitingTime="0.00" waitingCount="0" stopTime="0.00" timeLoss="18.03" rerouteNo="0" devices="tripinfo_C25" vType="typeCar@C25" speedFactor="1.00" vaporized=""/>
    <tripinfo id="C28" depart="138.00" departLane="sc_0" departPos="5.10" departSpeed="8.00" departDelay="0.00" arrival="190.30" arrivalLane="cn_0" arrivalPos="192.80" arrivalSpeed="10.00" duration="52.30" routeLength="394.90" waitingTime="0.00" waitingCount="0" stopTime="0.00" timeLoss="12.76" rerouteNo="0" devices="tripinfo_C28" vType="typeCar@C28" speedFactor="1.00" vaporized=""/>
    <tripinfo id="C27" depart="136.00" departLane="wc_0" departPos="5.10" departSpeed="8.00" departDelay="0.00" arrival="190.50" arrivalLane="ce_0" arrivalPos="192.80" arrivalSpeed="10.00" duration="54.50" routeLength="394.90" waitingTime="0.00" waitingCount="0" stopTime="0.00" timeLoss="15.02" rerouteNo="0" devices="tripinfo_C27" vType="typeCar@C27" speedFactor="1.00" vaporized=""/>
    <tripinfo id="C29" depart="154.00" departLane="wc_0" departPos="5.10" departSpeed="8.00" departDelay="0.00" arrival="202.30" arrivalLane="ce_0" arrivalPos="192.80" arrivalSpeed="10.00" duration="48.30" routeLength="394.90" waitingTime="0.00" waitingCount="0" stopTime="0.00" timeLoss="8.81" rerouteNo="0" devices="tripinfo_C29" vType="typeCar@C29" speedFactor="1.00" vaporized=""/>
    <tripinfo id="D30" depart="160.00" departLane="wc_0" departPos="5.10" departSpeed="8.00" departDelay="0.00" arrival="212.40" arrivalLane="ce_0" arrivalPos="192.80" arrivalSpeed="10.00" duration="52.40" routeLength="394.90" waitingTime="0.00" waitingCount="0" stopTime="0.00" timeLoss="12.84" rerouteNo="0" devices="tripinfo_D30" vType="typeCar@D30" speedFactor="1.00" vaporized=""/>
    <tripinfo id="D31" depart="164.00" departLane="sc_0" departPos="5.10" departSpeed="1.24" departDelay="0.00" arrival="220.20" arrivalLane="cn_0" arrivalPos="192.80" arrivalSpeed="10.00" duration="56.20" routeLength="394.90" waitingTime="0.00" waitingCount="0" stopTime="0.00" timeLoss="16.64" rerouteNo="0" devices="tripinfo_D31" vType="typeCar@D31" speedFactor="1.00" vaporized=""/>
    <tripinfo id="D32" depart="168.00" departLane="sc_0" departPos="5.10" departSpeed="8.00" departDelay="0.00" arrival="221.80" arrivalLane="cn_0" arrivalPos="192.80" arrivalSpeed="10.00" duration="53.80" routeLength="394.90" waitingTime="0.00" waitingCount="0" stopTime="0.00" timeLoss="14.31" rerouteNo="0" devices="tripinfo_D32" vType="typeCar@D32" speedFactor="1.00" vaporized=""/>
    <tripinfo id="D33" depart="174.00" departLane="sc_0" departPos="5.10" departSpeed="8.00" departDelay="0.00" arrival="224.80" arrivalLane="cn_0" arrivalPos="192.80" arrivalSpeed="10.00" duration="50.80" routeLength="394.90" waitingTime="0.00" waitingCount="0" stopTime="0.00" timeLoss="11.32" rerouteNo="0" devices="tripinfo_D33" vType="typeCar@D33" speedFactor="1.00" vaporized=""/>
    <tripinfo id="D35" depart="182.00" departLane="sc_0" departPos="5.10" departSpeed="5.71" departDelay="0.00" arrival="229.60" arrivalLane="cn_0" arrivalPos="192.80" arrivalSpeed="10.00" duration="47.60" routeLength="394.90" waitingTime="0.00" waitingCount="0" stopTime="0.00" timeLoss="8.03" rerouteNo="0" devices="tripinfo_D35" vType="typeCar@D35" speedFactor="1.00" vaporized=""/>
    <tripinfo id="D37" depart="196.00" departLane="sc_0" departPos="5.10" departSpeed="4.30" departDelay="0.00" arrival="240.60" arrivalLane="cn_0" arrivalPos="192.80" arrivalSpeed="10.00" duration="44.60" routeLength="394.90" waitingTime="0.00" waitingCount="0" stopTime="0.00" timeLoss="5.09" rerouteNo="0" devices="tripinfo_D37" vType="typeCar@D37" speedFactor="1.00" vaporized=""/>
    <tripinfo id="D34" depart="176.00" departLane="wc_0" departPos="5.10" departSpeed="3.28" departDelay="0.00" arrival="242.70" arrivalLane="ce_0" arrivalPos="192.80" arrivalSpeed="10.00" duration="66.70" routeLength="394.90" waitingTime="0.00" waitingCount="0" stopTime="0.00" timeLoss="27.15" rerouteNo="0" devices="tripinfo_D34" vType="typeCar@D34" speedFactor="1.00" vaporized=""/>
    <tripinfo id="D36" depart="188.00" departLane="wc_0" departPos="5.10" departSpeed="4.77" departDelay="0.00" arrival="244.30" arrivalLane="ce_0" arrivalPos="192.80" arrivalSpeed="10.00" duration="56.30" routeLength="394.90" waitingTime="0.00" waitingCount="0" stopTime="0.00" timeLoss="16.73" rerouteNo="0" devices="tripinfo_D36" vType="typeCar@D36" speedFactor="1.00" vaporized=""/>
</tripinfos>
