<?xml version="1.0" encoding="UTF-8"?>

<!-- generated on 2022-09-23 14:14:36 by Eclipse SUMO GUI Version 1.13.0
<configuration xmlns:xsi="http://www.w3.org/2001/XMLSchema-instance" xsi:noNamespaceSchemaLocation="http://sumo.dlr.de/xsd/sumoConfiguration.xsd">

    <input>
        <net-file value="net.net.xml"/>
        <route-files value="routes.rou.xml"/>
    </input>

    <output>
        <tripinfo-output value="raw_data/(1,1,0)tripinfo.xml"/>
    </output>

    <time>
        <begin value="0"/>
        <step-length value="0.1"/>
    </time>

    <processing>
        <collision.action value="warn"/>
        <collision.stoptime value="1"/>
        <collision.mingap-factor value="1"/>
    </processing>

    <report>
        <verbose value="false"/>
        <log value="log.txt"/>
        <duration-log.statistics value="true"/>
        <no-step-log value="true"/>
    </report>

    <traci_server>
        <remote-port value="13410"/>
    </traci_server>

    <gui_only>
        <tracker-interval value="0.1"/>
    </gui_only>

</configuration>
-->

<tripinfos xmlns:xsi="http://www.w3.org/2001/XMLSchema-instance" xsi:noNamespaceSchemaLocation="http://sumo.dlr.de/xsd/tripinfo_file.xsd">
    <tripinfo id="A0" depart="0.00" departLane="sc_0" departPos="5.10" departSpeed="10.00" departDelay="0.00" arrival="48.90" arrivalLane="cn_0" arrivalPos="192.80" arrivalSpeed="8.20" duration="48.90" routeLength="394.90" waitingTime="0.00" waitingCount="0" stopTime="0.00" timeLoss="9.36" rerouteNo="0" devices="tripinfo_A0" vType="typeCar@A0" speedFactor="1.00" vaporized=""/>
    <tripinfo id="A1" depart="3.00" departLane="sc_0" departPos="5.10" departSpeed="10.00" departDelay="0.00" arrival="49.90" arrivalLane="cn_0" arrivalPos="192.80" arrivalSpeed="8.19" duration="46.90" routeLength="394.90" waitingTime="0.00" waitingCount="0" stopTime="0.00" timeLoss="7.37" rerouteNo="0" devices="tripinfo_A1" vType="typeCar@A1" speedFactor="1.00" vaporized=""/>
    <tripinfo id="A2" depart="4.70" departLane="sc_0" departPos="5.10" departSpeed="10.00" departDelay="0.70" arrival="52.10" arrivalLane="cn_0" arrivalPos="192.80" arrivalSpeed="7.77" duration="47.40" routeLength="394.90" waitingTime="0.00" waitingCount="0" stopTime="0.00" timeLoss="7.87" rerouteNo="0" devices="tripinfo_A2" vType="typeCar@A2" speedFactor="1.00" vaporized=""/>
    <tripinfo id="A8" depart="13.00" departLane="sc_0" departPos="5.10" departSpeed="10.00" departDelay="0.00" arrival="64.20" arrivalLane="cn_0" arrivalPos="192.80" arrivalSpeed="10.00" duration="51.20" routeLength="394.90" waitingTime="3.70" waitingCount="1" stopTime="5.50" timeLoss="7.00" rerouteNo="0" devices="tripinfo_A8" vType="typeCar@A8" speedFactor="1.00" vaporized=""/>
    <tripinfo id="A9" depart="20.00" departLane="sc_0" departPos="5.10" departSpeed="10.00" departDelay="0.00" arrival="64.30" arrivalLane="cn_0" arrivalPos="192.80" arrivalSpeed="0.30" duration="44.30" routeLength="394.90" waitingTime="0.90" waitingCount="2" stopTime="1.10" timeLoss="3.65" rerouteNo="0" devices="tripinfo_A9" vType="typeCar@A9" speedFactor="1.00" vaporized=""/>
</tripinfos>
