<?xml version="1.0" encoding="UTF-8"?>

<!-- generated on 2022-09-29 17:46:05 by Eclipse SUMO GUI Version 1.13.0
<configuration xmlns:xsi="http://www.w3.org/2001/XMLSchema-instance" xsi:noNamespaceSchemaLocation="http://sumo.dlr.de/xsd/sumoConfiguration.xsd">

    <input>
        <net-file value="net.net.xml"/>
        <route-files value="routes.rou.xml"/>
    </input>

    <output>
        <tripinfo-output value="raw_data/(1,2,0)tripinfo.xml"/>
    </output>

    <time>
        <begin value="0"/>
        <step-length value="0.1"/>
    </time>

    <processing>
        <extrapolate-departpos value="true"/>
        <ignore-route-errors value="true"/>
        <collision.action value="warn"/>
        <collision.stoptime value="1"/>
        <collision.mingap-factor value="0.1"/>
    </processing>

    <report>
        <verbose value="false"/>
        <log value="log.txt"/>
        <duration-log.statistics value="true"/>
        <no-step-log value="true"/>
    </report>

    <traci_server>
        <remote-port value="14889"/>
    </traci_server>

    <gui_only>
        <tracker-interval value="0.1"/>
    </gui_only>

</configuration>
-->

<tripinfos xmlns:xsi="http://www.w3.org/2001/XMLSchema-instance" xsi:noNamespaceSchemaLocation="http://sumo.dlr.de/xsd/tripinfo_file.xsd">
    <tripinfo id="A0" depart="0.00" departLane="sc_0" departPos="5.10" departSpeed="10.00" departDelay="0.00" arrival="51.20" arrivalLane="cn_0" arrivalPos="192.80" arrivalSpeed="10.00" duration="51.20" routeLength="394.90" waitingTime="0.00" waitingCount="0" stopTime="0.00" timeLoss="11.64" rerouteNo="0" devices="tripinfo_A0" vType="typeCar@A0" speedFactor="1.00" vaporized=""/>
    <tripinfo id="A2" depart="6.00" departLane="sc_0" departPos="5.10" departSpeed="8.00" departDelay="0.00" arrival="54.80" arrivalLane="cn_0" arrivalPos="192.80" arrivalSpeed="10.00" duration="48.80" routeLength="394.90" waitingTime="0.00" waitingCount="0" stopTime="0.00" timeLoss="9.28" rerouteNo="0" devices="tripinfo_A2" vType="typeCar@A2" speedFactor="1.00" vaporized=""/>
    <tripinfo id="A1" depart="2.00" departLane="wc_0" departPos="5.10" departSpeed="10.00" departDelay="0.00" arrival="58.80" arrivalLane="ce_0" arrivalPos="192.80" arrivalSpeed="10.00" duration="56.80" routeLength="394.90" waitingTime="0.00" waitingCount="0" stopTime="0.00" timeLoss="17.25" rerouteNo="0" devices="tripinfo_A1" vType="typeCar@A1" speedFactor="1.00" vaporized=""/>
    <tripinfo id="A4" depart="10.00" departLane="wc_0" departPos="5.10" departSpeed="5.50" departDelay="0.00" arrival="64.90" arrivalLane="ce_0" arrivalPos="192.80" arrivalSpeed="10.00" duration="54.90" routeLength="394.90" waitingTime="0.00" waitingCount="0" stopTime="0.00" timeLoss="15.34" rerouteNo="0" devices="tripinfo_A4" vType="typeCar@A4" speedFactor="1.00" vaporized=""/>
    <tripinfo id="A3" depart="8.00" departLane="sc_0" departPos="5.10" departSpeed="8.00" departDelay="0.00" arrival="66.60" arrivalLane="cn_0" arrivalPos="192.80" arrivalSpeed="10.00" duration="58.60" routeLength="394.90" waitingTime="0.00" waitingCount="0" stopTime="0.00" timeLoss="19.10" rerouteNo="0" devices="tripinfo_A3" vType="typeCar@A3" speedFactor="1.00" vaporized=""/>
    <tripinfo id="A5" depart="12.00" departLane="wc_0" departPos="5.10" departSpeed="8.00" departDelay="0.00" arrival="70.10" arrivalLane="ce_0" arrivalPos="192.80" arrivalSpeed="10.00" duration="58.10" routeLength="394.90" waitingTime="0.00" waitingCount="0" stopTime="0.00" timeLoss="18.61" rerouteNo="0" devices="tripinfo_A5" vType="typeCar@A5" speedFactor="1.00" vaporized=""/>
    <tripinfo id="A6" depart="12.00" departLane="sc_0" departPos="5.10" departSpeed="6.76" departDelay="0.00" arrival="72.60" arrivalLane="cn_0" arrivalPos="192.80" arrivalSpeed="10.00" duration="60.60" routeLength="394.90" waitingTime="0.00" waitingCount="0" stopTime="0.00" timeLoss="21.10" rerouteNo="0" devices="tripinfo_A6" vType="typeCar@A6" speedFactor="1.00" vaporized=""/>
    <tripinfo id="A7" depart="16.00" departLane="wc_0" departPos="5.10" departSpeed="6.79" departDelay="0.00" arrival="74.70" arrivalLane="ce_0" arrivalPos="192.80" arrivalSpeed="10.00" duration="58.70" routeLength="394.90" waitingTime="0.00" waitingCount="0" stopTime="0.00" timeLoss="19.18" rerouteNo="0" devices="tripinfo_A7" vType="typeCar@A7" speedFactor="1.00" vaporized=""/>
    <tripinfo id="A9" depart="22.00" departLane="wc_0" departPos="5.10" departSpeed="6.22" departDelay="0.00" arrival="76.10" arrivalLane="ce_0" arrivalPos="192.80" arrivalSpeed="10.00" duration="54.10" routeLength="394.90" waitingTime="0.00" waitingCount="0" stopTime="0.00" timeLoss="14.55" rerouteNo="0" devices="tripinfo_A9" vType="typeCar@A9" speedFactor="1.00" vaporized=""/>
    <tripinfo id="A8" depart="18.00" departLane="sc_0" departPos="5.10" departSpeed="6.14" departDelay="0.00" arrival="78.60" arrivalLane="cn_0" arrivalPos="192.80" arrivalSpeed="10.00" duration="60.60" routeLength="394.90" waitingTime="0.00" waitingCount="0" stopTime="0.00" timeLoss="21.11" rerouteNo="0" devices="tripinfo_A8" vType="typeCar@A8" speedFactor="1.00" vaporized=""/>
    <tripinfo id="B11" depart="26.00" departLane="wc_0" departPos="5.10" departSpeed="8.00" departDelay="0.00" arrival="80.70" arrivalLane="ce_0" arrivalPos="192.80" arrivalSpeed="10.00" duration="54.70" routeLength="394.90" waitingTime="0.20" waitingCount="1" stopTime="0.00" timeLoss="15.22" rerouteNo="0" devices="tripinfo_B11" vType="typeCar@B11" speedFactor="1.00" vaporized=""/>
    <tripinfo id="B13" depart="34.00" departLane="wc_0" departPos="5.10" departSpeed="5.73" departDelay="0.00" arrival="83.60" arrivalLane="ce_0" arrivalPos="192.80" arrivalSpeed="10.00" duration="49.60" routeLength="394.90" waitingTime="0.00" waitingCount="0" stopTime="0.00" timeLoss="10.03" rerouteNo="0" devices="tripinfo_B13" vType="typeCar@B13" speedFactor="1.00" vaporized=""/>
    <tripinfo id="B10" depart="22.00" departLane="sc_0" departPos="5.10" departSpeed="8.00" departDelay="0.00" arrival="88.60" arrivalLane="cn_0" arrivalPos="192.80" arrivalSpeed="10.00" duration="66.60" routeLength="394.90" waitingTime="0.00" waitingCount="0" stopTime="0.00" timeLoss="27.02" rerouteNo="0" devices="tripinfo_B10" vType="typeCar@B10" speedFactor="1.00" vaporized=""/>
    <tripinfo id="B12" depart="26.00" departLane="sc_0" departPos="5.10" departSpeed="6.79" departDelay="0.00" arrival="92.60" arrivalLane="cn_0" arrivalPos="192.80" arrivalSpeed="10.00" duration="66.60" routeLength="394.90" waitingTime="0.00" waitingCount="0" stopTime="0.00" timeLoss="27.08" rerouteNo="0" devices="tripinfo_B12" vType="typeCar@B12" speedFactor="1.00" vaporized=""/>
    <tripinfo id="B14" depart="40.00" departLane="sc_0" departPos="5.10" departSpeed="4.12" departDelay="0.00" arrival="95.90" arrivalLane="cn_0" arrivalPos="192.80" arrivalSpeed="10.00" duration="55.90" routeLength="394.90" waitingTime="0.00" waitingCount="0" stopTime="0.00" timeLoss="16.40" rerouteNo="0" devices="tripinfo_B14" vType="typeCar@B14" speedFactor="1.00" vaporized=""/>
    <tripinfo id="B15" depart="42.00" departLane="wc_0" departPos="5.10" departSpeed="5.54" departDelay="0.00" arrival="100.20" arrivalLane="ce_0" arrivalPos="192.80" arrivalSpeed="10.00" duration="58.20" routeLength="394.90" waitingTime="6.80" waitingCount="1" stopTime="0.00" timeLoss="18.66" rerouteNo="0" devices="tripinfo_B15" vType="typeCar@B15" speedFactor="1.00" vaporized=""/>
    <tripinfo id="B16" depart="44.00" departLane="wc_0" departPos="5.10" departSpeed="8.00" departDelay="0.00" arrival="101.50" arrivalLane="ce_0" arrivalPos="192.80" arrivalSpeed="10.00" duration="57.50" routeLength="394.90" waitingTime="0.00" waitingCount="0" stopTime="0.00" timeLoss="17.96" rerouteNo="0" devices="tripinfo_B16" vType="typeCar@B16" speedFactor="1.00" vaporized=""/>
    <tripinfo id="B17" depart="46.00" departLane="wc_0" departPos="5.10" departSpeed="7.38" departDelay="0.00" arrival="102.80" arrivalLane="ce_0" arrivalPos="192.80" arrivalSpeed="10.00" duration="56.80" routeLength="394.90" waitingTime="0.00" waitingCount="0" stopTime="0.00" timeLoss="17.32" rerouteNo="0" devices="tripinfo_B17" vType="typeCar@B17" speedFactor="1.00" vaporized=""/>
    <tripinfo id="B18" depart="50.00" departLane="wc_0" departPos="5.10" departSpeed="8.00" departDelay="0.00" arrival="104.30" arrivalLane="ce_0" arrivalPos="192.80" arrivalSpeed="10.00" duration="54.30" routeLength="394.90" waitingTime="0.00" waitingCount="0" stopTime="0.00" timeLoss="14.81" rerouteNo="0" devices="tripinfo_B18" vType="typeCar@B18" speedFactor="1.00" vaporized=""/>
    <tripinfo id="B19" depart="52.00" departLane="wc_0" departPos="5.10" departSpeed="7.38" departDelay="0.00" arrival="110.60" arrivalLane="ce_0" arrivalPos="192.80" arrivalSpeed="10.00" duration="58.60" routeLength="394.90" waitingTime="0.00" waitingCount="0" stopTime="0.00" timeLoss="19.04" rerouteNo="0" devices="tripinfo_B19" vType="typeCar@B19" speedFactor="1.00" vaporized=""/>
    <tripinfo id="C20" depart="56.00" departLane="wc_0" departPos="5.10" departSpeed="8.00" departDelay="0.00" arrival="116.60" arrivalLane="ce_0" arrivalPos="192.80" arrivalSpeed="10.00" duration="60.60" routeLength="394.90" waitingTime="0.00" waitingCount="0" stopTime="0.00" timeLoss="21.05" rerouteNo="0" devices="tripinfo_C20" vType="typeCar@C20" speedFactor="1.00" vaporized=""/>
    <tripinfo id="C21" depart="58.00" departLane="wc_0" departPos="5.10" departSpeed="8.00" departDelay="0.00" arrival="118.00" arrivalLane="ce_0" arrivalPos="192.80" arrivalSpeed="10.00" duration="60.00" routeLength="394.90" waitingTime="0.00" waitingCount="0" stopTime="0.00" timeLoss="20.44" rerouteNo="0" devices="tripinfo_C21" vType="typeCar@C21" speedFactor="1.00" vaporized=""/>
    <tripinfo id="C22" depart="66.00" departLane="wc_0" departPos="5.10" departSpeed="8.00" departDelay="0.00" arrival="119.60" arrivalLane="ce_0" arrivalPos="192.80" arrivalSpeed="10.00" duration="53.60" routeLength="394.90" waitingTime="0.00" waitingCount="0" stopTime="0.00" timeLoss="14.11" rerouteNo="0" devices="tripinfo_C22" vType="typeCar@C22" speedFactor="1.00" vaporized=""/>
    <tripinfo id="C23" depart="66.00" departLane="sc_0" departPos="5.10" departSpeed="2.27" departDelay="0.00" arrival="122.80" arrivalLane="cn_0" arrivalPos="192.80" arrivalSpeed="10.00" duration="56.80" routeLength="394.90" waitingTime="0.00" waitingCount="0" stopTime="0.00" timeLoss="17.32" rerouteNo="0" devices="tripinfo_C23" vType="typeCar@C23" speedFactor="1.00" vaporized=""/>
    <tripinfo id="C24" depart="68.00" departLane="wc_0" departPos="5.10" departSpeed="7.38" departDelay="0.00" arrival="123.00" arrivalLane="ce_0" arrivalPos="192.80" arrivalSpeed="10.00" duration="55.00" routeLength="394.90" waitingTime="0.00" waitingCount="0" stopTime="0.00" timeLoss="15.45" rerouteNo="0" devices="tripinfo_C24" vType="typeCar@C24" speedFactor="1.00" vaporized=""/>
    <tripinfo id="C25" depart="70.00" departLane="wc_0" departPos="5.10" departSpeed="8.00" departDelay="0.00" arrival="136.80" arrivalLane="ce_0" arrivalPos="192.80" arrivalSpeed="10.00" duration="66.80" routeLength="394.90" waitingTime="0.00" waitingCount="0" stopTime="0.00" timeLoss="27.30" rerouteNo="0" devices="tripinfo_C25" vType="typeCar@C25" speedFactor="1.00" vaporized=""/>
    <tripinfo id="C26" depart="78.00" departLane="wc_0" departPos="5.10" departSpeed="5.73" departDelay="0.00" arrival="142.20" arrivalLane="ce_0" arrivalPos="192.80" arrivalSpeed="10.00" duration="64.20" routeLength="394.90" waitingTime="0.00" waitingCount="0" stopTime="0.00" timeLoss="24.63" rerouteNo="0" devices="tripinfo_C26" vType="typeCar@C26" speedFactor="1.00" vaporized=""/>
    <tripinfo id="C27" depart="84.00" departLane="wc_0" departPos="5.10" departSpeed="8.00" departDelay="0.00" arrival="143.60" arrivalLane="ce_0" arrivalPos="192.80" arrivalSpeed="10.00" duration="59.60" routeLength="394.90" waitingTime="0.00" waitingCount="0" stopTime="0.00" timeLoss="20.02" rerouteNo="0" devices="tripinfo_C27" vType="typeCar@C27" speedFactor="1.00" vaporized=""/>
    <tripinfo id="C28" depart="88.00" departLane="wc_0" departPos="5.10" departSpeed="8.00" departDelay="0.00" arrival="145.50" arrivalLane="ce_0" arrivalPos="192.80" arrivalSpeed="10.00" duration="57.50" routeLength="394.90" waitingTime="0.00" waitingCount="0" stopTime="0.00" timeLoss="17.98" rerouteNo="0" devices="tripinfo_C28" vType="typeCar@C28" speedFactor="1.00" vaporized=""/>
    <tripinfo id="C29" depart="88.00" departLane="sc_0" departPos="5.10" departSpeed="8.00" departDelay="0.00" arrival="146.70" arrivalLane="cn_0" arrivalPos="192.80" arrivalSpeed="10.00" duration="58.70" routeLength="394.90" waitingTime="0.00" waitingCount="0" stopTime="0.00" timeLoss="19.13" rerouteNo="0" devices="tripinfo_C29" vType="typeCar@C29" speedFactor="1.00" vaporized=""/>
    <tripinfo id="D30" depart="90.00" departLane="wc_0" departPos="5.10" departSpeed="8.00" departDelay="0.00" arrival="160.70" arrivalLane="ce_0" arrivalPos="192.80" arrivalSpeed="10.00" duration="70.70" routeLength="394.90" waitingTime="0.00" waitingCount="0" stopTime="0.00" timeLoss="31.18" rerouteNo="0" devices="tripinfo_D30" vType="typeCar@D30" speedFactor="1.00" vaporized=""/>
    <tripinfo id="D31" depart="94.00" departLane="wc_0" departPos="5.10" departSpeed="6.79" departDelay="0.00" arrival="162.10" arrivalLane="ce_0" arrivalPos="192.80" arrivalSpeed="10.00" duration="68.10" routeLength="394.90" waitingTime="0.30" waitingCount="3" stopTime="0.00" timeLoss="28.60" rerouteNo="0" devices="tripinfo_D31" vType="typeCar@D31" speedFactor="1.00" vaporized=""/>
    <tripinfo id="D35" depart="112.00" departLane="sc_0" departPos="5.10" departSpeed="8.00" departDelay="0.00" arrival="166.70" arrivalLane="cn_0" arrivalPos="192.80" arrivalSpeed="10.00" duration="54.70" routeLength="394.90" waitingTime="0.00" waitingCount="0" stopTime="0.00" timeLoss="15.15" rerouteNo="0" devices="tripinfo_D35" vType="typeCar@D35" speedFactor="1.00" vaporized=""/>
    <tripinfo id="D32" depart="100.00" departLane="wc_0" departPos="5.10" departSpeed="8.00" departDelay="0.00" arrival="170.40" arrivalLane="ce_0" arrivalPos="192.80" arrivalSpeed="10.00" duration="70.40" routeLength="394.90" waitingTime="0.30" waitingCount="3" stopTime="0.00" timeLoss="30.87" rerouteNo="0" devices="tripinfo_D32" vType="typeCar@D32" speedFactor="1.00" vaporized=""/>
    <tripinfo id="D37" depart="118.00" departLane="sc_0" departPos="5.10" departSpeed="8.00" departDelay="0.00" arrival="171.20" arrivalLane="cn_0" arrivalPos="192.80" arrivalSpeed="10.00" duration="53.20" routeLength="394.90" waitingTime="0.00" waitingCount="0" stopTime="0.00" timeLoss="13.71" rerouteNo="0" devices="tripinfo_D37" vType="typeCar@D37" speedFactor="1.00" vaporized=""/>
    <tripinfo id="D33" depart="104.00" departLane="wc_0" departPos="5.10" departSpeed="8.00" departDelay="0.00" arrival="171.80" arrivalLane="ce_0" arrivalPos="192.80" arrivalSpeed="10.00" duration="67.80" routeLength="394.90" waitingTime="0.40" waitingCount="4" stopTime="0.00" timeLoss="28.23" rerouteNo="0" devices="tripinfo_D33" vType="typeCar@D33" speedFactor="1.00" vaporized=""/>
    <tripinfo id="D34" depart="106.00" departLane="wc_0" departPos="5.10" departSpeed="8.00" departDelay="0.00" arrival="173.20" arrivalLane="ce_0" arrivalPos="192.80" arrivalSpeed="10.00" duration="67.20" routeLength="394.90" waitingTime="0.40" waitingCount="4" stopTime="0.00" timeLoss="27.66" rerouteNo="0" devices="tripinfo_D34" vType="typeCar@D34" speedFactor="1.00" vaporized=""/>
    <tripinfo id="D36" depart="116.00" departLane="wc_0" departPos="5.10" departSpeed="8.00" departDelay="0.00" arrival="174.70" arrivalLane="ce_0" arrivalPos="192.80" arrivalSpeed="10.00" duration="58.70" routeLength="394.90" waitingTime="0.00" waitingCount="0" stopTime="0.00" timeLoss="19.19" rerouteNo="0" devices="tripinfo_D36" vType="typeCar@D36" speedFactor="1.00" vaporized=""/>
    <tripinfo id="D38" depart="124.00" departLane="wc_0" departPos="5.10" departSpeed="8.00" departDelay="0.00" arrival="186.30" arrivalLane="ce_0" arrivalPos="192.80" arrivalSpeed="10.00" duration="62.30" routeLength="394.90" waitingTime="1.30" waitingCount="1" stopTime="0.00" timeLoss="22.80" rerouteNo="0" devices="tripinfo_D38" vType="typeCar@D38" speedFactor="1.00" vaporized=""/>
    <tripinfo id="E41" depart="130.00" departLane="sc_0" departPos="5.10" departSpeed="4.69" departDelay="0.00" arrival="188.50" arrivalLane="cn_0" arrivalPos="192.80" arrivalSpeed="10.00" duration="58.50" routeLength="394.90" waitingTime="0.00" waitingCount="0" stopTime="0.00" timeLoss="18.98" rerouteNo="0" devices="tripinfo_E41" vType="typeCar@E41" speedFactor="1.00" vaporized=""/>
    <tripinfo id="D39" depart="126.00" departLane="wc_0" departPos="5.10" departSpeed="7.38" departDelay="0.00" arrival="190.70" arrivalLane="ce_0" arrivalPos="192.80" arrivalSpeed="10.00" duration="64.70" routeLength="394.90" waitingTime="0.00" waitingCount="0" stopTime="0.00" timeLoss="25.18" rerouteNo="0" devices="tripinfo_D39" vType="typeCar@D39" speedFactor="1.00" vaporized=""/>
    <tripinfo id="E40" depart="130.00" departLane="wc_0" departPos="5.10" departSpeed="8.00" departDelay="0.00" arrival="192.00" arrivalLane="ce_0" arrivalPos="192.80" arrivalSpeed="10.00" duration="62.00" routeLength="394.90" waitingTime="0.00" waitingCount="0" stopTime="0.00" timeLoss="22.52" rerouteNo="0" devices="tripinfo_E40" vType="typeCar@E40" speedFactor="1.00" vaporized=""/>
    <tripinfo id="E42" depart="134.00" departLane="wc_0" departPos="5.10" departSpeed="6.79" departDelay="0.00" arrival="193.50" arrivalLane="ce_0" arrivalPos="192.80" arrivalSpeed="10.00" duration="59.50" routeLength="394.90" waitingTime="0.00" waitingCount="0" stopTime="0.00" timeLoss="19.94" rerouteNo="0" devices="tripinfo_E42" vType="typeCar@E42" speedFactor="1.00" vaporized=""/>
    <tripinfo id="E43" depart="136.00" departLane="wc_0" departPos="5.10" departSpeed="8.00" departDelay="0.00" arrival="195.40" arrivalLane="ce_0" arrivalPos="192.80" arrivalSpeed="10.00" duration="59.40" routeLength="394.90" waitingTime="0.00" waitingCount="0" stopTime="0.00" timeLoss="19.88" rerouteNo="0" devices="tripinfo_E43" vType="typeCar@E43" speedFactor="1.00" vaporized=""/>
    <tripinfo id="E45" depart="142.00" departLane="wc_0" departPos="5.10" departSpeed="8.00" departDelay="0.00" arrival="199.40" arrivalLane="ce_0" arrivalPos="192.80" arrivalSpeed="10.00" duration="57.40" routeLength="394.90" waitingTime="0.00" waitingCount="0" stopTime="0.00" timeLoss="17.86" rerouteNo="0" devices="tripinfo_E45" vType="typeCar@E45" speedFactor="1.00" vaporized=""/>
    <tripinfo id="E46" depart="148.00" departLane="wc_0" departPos="5.10" departSpeed="6.24" departDelay="0.00" arrival="200.90" arrivalLane="ce_0" arrivalPos="192.80" arrivalSpeed="10.00" duration="52.90" routeLength="394.90" waitingTime="0.00" waitingCount="0" stopTime="0.00" timeLoss="13.33" rerouteNo="0" devices="tripinfo_E46" vType="typeCar@E46" speedFactor="1.00" vaporized=""/>
    <tripinfo id="E47" depart="154.00" departLane="wc_0" departPos="5.10" departSpeed="8.00" departDelay="0.00" arrival="202.40" arrivalLane="ce_0" arrivalPos="192.80" arrivalSpeed="10.00" duration="48.40" routeLength="394.90" waitingTime="0.00" waitingCount="0" stopTime="0.00" timeLoss="8.89" rerouteNo="0" devices="tripinfo_E47" vType="typeCar@E47" speedFactor="1.00" vaporized=""/>
    <tripinfo id="E44" depart="138.00" departLane="sc_0" departPos="5.10" departSpeed="8.00" departDelay="0.00" arrival="204.70" arrivalLane="cn_0" arrivalPos="192.80" arrivalSpeed="10.00" duration="66.70" routeLength="394.90" waitingTime="5.20" waitingCount="1" stopTime="0.00" timeLoss="27.14" rerouteNo="0" devices="tripinfo_E44" vType="typeCar@E44" speedFactor="1.00" vaporized=""/>
    <tripinfo id="E48" depart="156.00" departLane="wc_0" departPos="5.10" departSpeed="8.00" departDelay="0.00" arrival="210.60" arrivalLane="ce_0" arrivalPos="192.80" arrivalSpeed="10.00" duration="54.60" routeLength="394.90" waitingTime="0.00" waitingCount="0" stopTime="0.00" timeLoss="15.06" rerouteNo="0" devices="tripinfo_E48" vType="typeCar@E48" speedFactor="1.00" vaporized=""/>
    <tripinfo id="E49" depart="158.00" departLane="wc_0" departPos="5.10" departSpeed="8.00" departDelay="0.00" arrival="212.00" arrivalLane="ce_0" arrivalPos="192.80" arrivalSpeed="10.00" duration="54.00" routeLength="394.90" waitingTime="0.00" waitingCount="0" stopTime="0.00" timeLoss="14.43" rerouteNo="0" devices="tripinfo_E49" vType="typeCar@E49" speedFactor="1.00" vaporized=""/>
    <tripinfo id="F52" depart="164.00" departLane="sc_0" departPos="5.10" departSpeed="7.97" departDelay="0.00" arrival="217.90" arrivalLane="cn_0" arrivalPos="192.80" arrivalSpeed="10.00" duration="53.90" routeLength="394.90" waitingTime="0.00" waitingCount="0" stopTime="0.00" timeLoss="14.34" rerouteNo="0" devices="tripinfo_F52" vType="typeCar@F52" speedFactor="1.00" vaporized=""/>
    <tripinfo id="F50" depart="160.00" departLane="wc_0" departPos="5.10" departSpeed="8.00" departDelay="0.00" arrival="218.30" arrivalLane="ce_0" arrivalPos="192.80" arrivalSpeed="10.00" duration="58.30" routeLength="394.90" waitingTime="2.70" waitingCount="1" stopTime="0.00" timeLoss="18.79" rerouteNo="0" devices="tripinfo_F50" vType="typeCar@F50" speedFactor="1.00" vaporized=""/>
    <tripinfo id="F51" depart="162.00" departLane="wc_0" departPos="5.10" departSpeed="8.00" departDelay="0.00" arrival="219.70" arrivalLane="ce_0" arrivalPos="192.80" arrivalSpeed="10.00" duration="57.70" routeLength="394.90" waitingTime="0.00" waitingCount="0" stopTime="0.00" timeLoss="18.16" rerouteNo="0" devices="tripinfo_F51" vType="typeCar@F51" speedFactor="1.00" vaporized=""/>
    <tripinfo id="F53" depart="166.00" departLane="wc_0" departPos="5.10" departSpeed="8.00" departDelay="0.00" arrival="221.10" arrivalLane="ce_0" arrivalPos="192.80" arrivalSpeed="10.00" duration="55.10" routeLength="394.90" waitingTime="0.00" waitingCount="0" stopTime="0.00" timeLoss="15.58" rerouteNo="0" devices="tripinfo_F53" vType="typeCar@F53" speedFactor="1.00" vaporized=""/>
    <tripinfo id="F54" depart="168.00" departLane="wc_0" departPos="5.10" departSpeed="7.38" departDelay="0.00" arrival="222.60" arrivalLane="ce_0" arrivalPos="192.80" arrivalSpeed="10.00" duration="54.60" routeLength="394.90" waitingTime="0.00" waitingCount="0" stopTime="0.00" timeLoss="15.08" rerouteNo="0" devices="tripinfo_F54" vType="typeCar@F54" speedFactor="1.00" vaporized=""/>
    <tripinfo id="F57" depart="176.00" departLane="wc_0" departPos="5.10" departSpeed="5.51" departDelay="0.00" arrival="225.40" arrivalLane="ce_0" arrivalPos="192.80" arrivalSpeed="10.00" duration="49.40" routeLength="394.90" waitingTime="0.00" waitingCount="0" stopTime="0.00" timeLoss="9.88" rerouteNo="0" devices="tripinfo_F57" vType="typeCar@F57" speedFactor="1.00" vaporized=""/>
    <tripinfo id="F59" depart="188.00" departLane="wc_0" departPos="5.10" departSpeed="4.68" departDelay="0.00" arrival="233.50" arrivalLane="ce_0" arrivalPos="192.80" arrivalSpeed="10.00" duration="45.50" routeLength="394.90" waitingTime="0.00" waitingCount="0" stopTime="0.00" timeLoss="6.01" rerouteNo="0" devices="tripinfo_F59" vType="typeCar@F59" speedFactor="1.00" vaporized=""/>
    <tripinfo id="G60" depart="192.00" departLane="wc_0" departPos="5.10" departSpeed="8.00" departDelay="0.00" arrival="236.30" arrivalLane="ce_0" arrivalPos="192.80" arrivalSpeed="10.00" duration="44.30" routeLength="394.90" waitingTime="0.00" waitingCount="0" stopTime="0.00" timeLoss="4.82" rerouteNo="0" devices="tripinfo_G60" vType="typeCar@G60" speedFactor="1.00" vaporized=""/>
    <tripinfo id="F55" depart="168.00" departLane="sc_0" departPos="5.10" departSpeed="8.00" departDelay="0.00" arrival="239.70" arrivalLane="cn_0" arrivalPos="192.80" arrivalSpeed="10.00" duration="71.70" routeLength="394.90" waitingTime="0.00" waitingCount="0" stopTime="0.00" timeLoss="32.13" rerouteNo="0" devices="tripinfo_F55" vType="typeCar@F55" speedFactor="1.00" vaporized=""/>
    <tripinfo id="F56" depart="174.00" departLane="sc_0" departPos="5.10" departSpeed="6.24" departDelay="0.00" arrival="241.10" arrivalLane="cn_0" arrivalPos="192.80" arrivalSpeed="10.00" duration="67.10" routeLength="394.90" waitingTime="0.00" waitingCount="0" stopTime="0.00" timeLoss="27.56" rerouteNo="0" devices="tripinfo_F56" vType="typeCar@F56" speedFactor="1.00" vaporized=""/>
    <tripinfo id="F58" depart="182.00" departLane="sc_0" departPos="5.10" departSpeed="5.73" departDelay="0.00" arrival="242.50" arrivalLane="cn_0" arrivalPos="192.80" arrivalSpeed="10.00" duration="60.50" routeLength="394.90" waitingTime="0.00" waitingCount="0" stopTime="0.00" timeLoss="21.02" rerouteNo="0" devices="tripinfo_F58" vType="typeCar@F58" speedFactor="1.00" vaporized=""/>
    <tripinfo id="G61" depart="196.00" departLane="sc_0" departPos="5.10" departSpeed="8.00" departDelay="0.00" arrival="244.10" arrivalLane="cn_0" arrivalPos="192.80" arrivalSpeed="10.00" duration="48.10" routeLength="394.90" waitingTime="0.00" waitingCount="0" stopTime="0.00" timeLoss="8.59" rerouteNo="0" devices="tripinfo_G61" vType="typeCar@G61" speedFactor="1.00" vaporized=""/>
</tripinfos>
