<?xml version="1.0" encoding="UTF-8"?>

<!-- generated on 2022-07-30 15:03:18 by Eclipse SUMO GUI Version 1.13.0
<configuration xmlns:xsi="http://www.w3.org/2001/XMLSchema-instance" xsi:noNamespaceSchemaLocation="http://sumo.dlr.de/xsd/sumoConfiguration.xsd">

    <input>
        <net-file value="net.net.xml"/>
        <route-files value="routes.rou.xml"/>
    </input>

    <output>
        <tripinfo-output value="raw_data/(1,3,0)tripinfo.xml"/>
    </output>

    <time>
        <begin value="0"/>
        <step-length value="0.1"/>
    </time>

    <processing>
        <collision.action value="warn"/>
        <collision.stoptime value="1"/>
        <collision.mingap-factor value="1"/>
    </processing>

    <report>
        <verbose value="false"/>
        <log value="log.txt"/>
        <duration-log.statistics value="true"/>
        <no-step-log value="true"/>
    </report>

    <traci_server>
        <remote-port value="10276"/>
    </traci_server>

    <gui_only>
        <tracker-interval value="0.1"/>
    </gui_only>

</configuration>
-->

<tripinfos xmlns:xsi="http://www.w3.org/2001/XMLSchema-instance" xsi:noNamespaceSchemaLocation="http://sumo.dlr.de/xsd/tripinfo_file.xsd">
    <tripinfo id="A0" depart="0.00" departLane="sc_0" departPos="5.10" departSpeed="10.00" departDelay="0.00" arrival="252.50" arrivalLane="cn_0" arrivalPos="992.80" arrivalSpeed="8.13" duration="252.50" routeLength="1994.90" waitingTime="0.00" waitingCount="0" stopTime="0.00" timeLoss="52.98" rerouteNo="0" devices="tripinfo_A0" vType="typeCar@A0" speedFactor="1.00" vaporized=""/>
    <tripinfo id="A1" depart="1.00" departLane="wc_0" departPos="5.10" departSpeed="10.00" departDelay="0.00" arrival="254.50" arrivalLane="ce_0" arrivalPos="992.80" arrivalSpeed="8.04" duration="253.50" routeLength="1994.90" waitingTime="0.00" waitingCount="0" stopTime="0.00" timeLoss="53.98" rerouteNo="0" devices="tripinfo_A1" vType="typeCar@A1" speedFactor="1.00" vaporized=""/>
    <tripinfo id="A2" depart="3.00" departLane="sc_0" departPos="5.10" departSpeed="10.00" departDelay="0.00" arrival="256.50" arrivalLane="cn_0" arrivalPos="992.80" arrivalSpeed="8.05" duration="253.50" routeLength="1994.90" waitingTime="0.00" waitingCount="0" stopTime="0.00" timeLoss="53.98" rerouteNo="0" devices="tripinfo_A2" vType="typeCar@A2" speedFactor="1.00" vaporized=""/>
    <tripinfo id="A3" depart="4.00" departLane="wc_0" departPos="5.10" departSpeed="10.00" departDelay="0.00" arrival="258.50" arrivalLane="ce_0" arrivalPos="992.80" arrivalSpeed="8.09" duration="254.50" routeLength="1994.90" waitingTime="0.00" waitingCount="0" stopTime="0.00" timeLoss="54.98" rerouteNo="0" devices="tripinfo_A3" vType="typeCar@A3" speedFactor="1.00" vaporized=""/>
    <tripinfo id="A4" depart="4.70" departLane="sc_0" departPos="5.10" departSpeed="10.00" departDelay="0.70" arrival="260.50" arrivalLane="cn_0" arrivalPos="992.80" arrivalSpeed="8.03" duration="255.80" routeLength="1994.90" waitingTime="0.00" waitingCount="0" stopTime="0.00" timeLoss="56.28" rerouteNo="0" devices="tripinfo_A4" vType="typeCar@A4" speedFactor="1.00" vaporized=""/>
    <tripinfo id="A5" depart="5.70" departLane="wc_0" departPos="5.10" departSpeed="10.00" departDelay="0.70" arrival="262.50" arrivalLane="ce_0" arrivalPos="992.80" arrivalSpeed="8.04" duration="256.80" routeLength="1994.90" waitingTime="0.00" waitingCount="0" stopTime="0.00" timeLoss="57.28" rerouteNo="0" devices="tripinfo_A5" vType="typeCar@A5" speedFactor="1.00" vaporized=""/>
    <tripinfo id="A6" depart="8.40" departLane="wc_0" departPos="5.10" departSpeed="10.00" departDelay="2.40" arrival="263.50" arrivalLane="ce_0" arrivalPos="992.80" arrivalSpeed="8.13" duration="255.10" routeLength="1994.90" waitingTime="0.00" waitingCount="0" stopTime="0.00" timeLoss="55.58" rerouteNo="0" devices="tripinfo_A6" vType="typeCar@A6" speedFactor="1.00" vaporized=""/>
    <tripinfo id="A7" depart="7.40" departLane="sc_0" departPos="5.10" departSpeed="10.00" departDelay="1.40" arrival="265.50" arrivalLane="cn_0" arrivalPos="992.80" arrivalSpeed="7.75" duration="258.10" routeLength="1994.90" waitingTime="0.00" waitingCount="0" stopTime="0.00" timeLoss="58.58" rerouteNo="0" devices="tripinfo_A7" vType="typeCar@A7" speedFactor="1.00" vaporized=""/>
    <tripinfo id="A8" depart="11.20" departLane="wc_0" departPos="5.10" departSpeed="10.00" departDelay="3.20" arrival="267.50" arrivalLane="ce_0" arrivalPos="992.80" arrivalSpeed="8.10" duration="256.30" routeLength="1994.90" waitingTime="0.00" waitingCount="0" stopTime="0.00" timeLoss="56.78" rerouteNo="0" devices="tripinfo_A8" vType="typeCar@A8" speedFactor="1.00" vaporized=""/>
    <tripinfo id="A9" depart="10.20" departLane="sc_0" departPos="5.10" departSpeed="10.00" departDelay="1.20" arrival="269.50" arrivalLane="cn_0" arrivalPos="992.80" arrivalSpeed="8.07" duration="259.30" routeLength="1994.90" waitingTime="0.00" waitingCount="0" stopTime="0.00" timeLoss="59.78" rerouteNo="0" devices="tripinfo_A9" vType="typeCar@A9" speedFactor="1.00" vaporized=""/>
    <tripinfo id="B10" depart="14.10" departLane="wc_0" departPos="5.10" departSpeed="10.00" departDelay="3.10" arrival="271.50" arrivalLane="ce_0" arrivalPos="992.80" arrivalSpeed="8.07" duration="257.40" routeLength="1994.90" waitingTime="0.00" waitingCount="0" stopTime="0.00" timeLoss="57.88" rerouteNo="0" devices="tripinfo_B10" vType="typeCar@B10" speedFactor="1.00" vaporized=""/>
    <tripinfo id="B11" depart="13.00" departLane="sc_0" departPos="5.10" departSpeed="10.00" departDelay="2.00" arrival="273.50" arrivalLane="cn_0" arrivalPos="992.80" arrivalSpeed="8.12" duration="260.50" routeLength="1994.90" waitingTime="0.00" waitingCount="0" stopTime="0.00" timeLoss="60.98" rerouteNo="0" devices="tripinfo_B11" vType="typeCar@B11" speedFactor="1.00" vaporized=""/>
    <tripinfo id="B12" depart="17.00" departLane="wc_0" departPos="5.10" departSpeed="10.00" departDelay="4.00" arrival="275.50" arrivalLane="ce_0" arrivalPos="992.80" arrivalSpeed="8.02" duration="258.50" routeLength="1994.90" waitingTime="0.00" waitingCount="0" stopTime="0.00" timeLoss="58.98" rerouteNo="0" devices="tripinfo_B12" vType="typeCar@B12" speedFactor="1.00" vaporized=""/>
    <tripinfo id="B13" depart="15.70" departLane="sc_0" departPos="5.10" departSpeed="10.00" departDelay="2.70" arrival="277.50" arrivalLane="cn_0" arrivalPos="992.80" arrivalSpeed="8.16" duration="261.80" routeLength="1994.90" waitingTime="0.00" waitingCount="0" stopTime="0.00" timeLoss="62.28" rerouteNo="0" devices="tripinfo_B13" vType="typeCar@B13" speedFactor="1.00" vaporized=""/>
    <tripinfo id="B14" depart="19.90" departLane="wc_0" departPos="5.10" departSpeed="10.00" departDelay="3.90" arrival="279.50" arrivalLane="ce_0" arrivalPos="992.80" arrivalSpeed="7.82" duration="259.60" routeLength="1994.90" waitingTime="0.00" waitingCount="0" stopTime="0.00" timeLoss="60.08" rerouteNo="0" devices="tripinfo_B14" vType="typeCar@B14" speedFactor="1.00" vaporized=""/>
    <tripinfo id="B15" depart="22.70" departLane="wc_0" departPos="5.10" departSpeed="10.00" departDelay="5.70" arrival="280.50" arrivalLane="ce_0" arrivalPos="992.80" arrivalSpeed="7.86" duration="257.80" routeLength="1994.90" waitingTime="0.00" waitingCount="0" stopTime="0.00" timeLoss="58.28" rerouteNo="0" devices="tripinfo_B15" vType="typeCar@B15" speedFactor="1.00" vaporized=""/>
    <tripinfo id="B16" depart="20.00" departLane="sc_0" departPos="5.10" departSpeed="10.00" departDelay="0.00" arrival="282.50" arrivalLane="cn_0" arrivalPos="992.80" arrivalSpeed="8.14" duration="262.50" routeLength="1994.90" waitingTime="0.00" waitingCount="0" stopTime="0.00" timeLoss="62.98" rerouteNo="0" devices="tripinfo_B16" vType="typeCar@B16" speedFactor="1.00" vaporized=""/>
    <tripinfo id="B17" depart="25.60" departLane="wc_0" departPos="5.10" departSpeed="10.00" departDelay="4.60" arrival="284.50" arrivalLane="ce_0" arrivalPos="992.80" arrivalSpeed="8.04" duration="258.90" routeLength="1994.90" waitingTime="0.00" waitingCount="0" stopTime="0.00" timeLoss="59.38" rerouteNo="0" devices="tripinfo_B17" vType="typeCar@B17" speedFactor="1.00" vaporized=""/>
    <tripinfo id="B18" depart="28.50" departLane="wc_0" departPos="5.10" departSpeed="10.00" departDelay="6.50" arrival="285.50" arrivalLane="ce_0" arrivalPos="992.80" arrivalSpeed="8.05" duration="257.00" routeLength="1994.90" waitingTime="0.00" waitingCount="0" stopTime="0.00" timeLoss="57.48" rerouteNo="0" devices="tripinfo_B18" vType="typeCar@B18" speedFactor="1.00" vaporized=""/>
    <tripinfo id="B19" depart="31.40" departLane="wc_0" departPos="5.10" departSpeed="10.00" departDelay="8.40" arrival="286.50" arrivalLane="ce_0" arrivalPos="992.80" arrivalSpeed="8.16" duration="255.10" routeLength="1994.90" waitingTime="0.00" waitingCount="0" stopTime="0.00" timeLoss="55.58" rerouteNo="0" devices="tripinfo_B19" vType="typeCar@B19" speedFactor="1.00" vaporized=""/>
    <tripinfo id="C20" depart="34.20" departLane="wc_0" departPos="5.10" departSpeed="10.00" departDelay="9.20" arrival="287.50" arrivalLane="ce_0" arrivalPos="992.80" arrivalSpeed="8.15" duration="253.30" routeLength="1994.90" waitingTime="0.00" waitingCount="0" stopTime="0.00" timeLoss="53.78" rerouteNo="0" devices="tripinfo_C20" vType="typeCar@C20" speedFactor="1.00" vaporized=""/>
    <tripinfo id="C21" depart="37.10" departLane="wc_0" departPos="5.10" departSpeed="10.00" departDelay="11.10" arrival="288.50" arrivalLane="ce_0" arrivalPos="992.80" arrivalSpeed="8.06" duration="251.40" routeLength="1994.90" waitingTime="0.00" waitingCount="0" stopTime="0.00" timeLoss="51.88" rerouteNo="0" devices="tripinfo_C21" vType="typeCar@C21" speedFactor="1.00" vaporized=""/>
    <tripinfo id="C22" depart="40.00" departLane="wc_0" departPos="5.10" departSpeed="10.00" departDelay="12.00" arrival="289.50" arrivalLane="ce_0" arrivalPos="992.80" arrivalSpeed="7.83" duration="249.50" routeLength="1994.90" waitingTime="0.00" waitingCount="0" stopTime="0.00" timeLoss="49.98" rerouteNo="0" devices="tripinfo_C22" vType="typeCar@C22" speedFactor="1.00" vaporized=""/>
    <tripinfo id="C23" depart="42.90" departLane="wc_0" departPos="5.10" departSpeed="10.00" departDelay="13.90" arrival="290.50" arrivalLane="ce_0" arrivalPos="992.80" arrivalSpeed="8.10" duration="247.60" routeLength="1994.90" waitingTime="0.00" waitingCount="0" stopTime="0.00" timeLoss="48.08" rerouteNo="0" devices="tripinfo_C23" vType="typeCar@C23" speedFactor="1.00" vaporized=""/>
    <tripinfo id="C24" depart="45.20" departLane="wc_0" departPos="5.10" departSpeed="10.00" departDelay="14.20" arrival="291.50" arrivalLane="ce_0" arrivalPos="992.80" arrivalSpeed="8.19" duration="246.30" routeLength="1994.90" waitingTime="0.00" waitingCount="0" stopTime="0.00" timeLoss="46.78" rerouteNo="0" devices="tripinfo_C24" vType="typeCar@C24" speedFactor="1.00" vaporized=""/>
    <tripinfo id="C25" depart="46.90" departLane="wc_0" departPos="5.10" departSpeed="10.00" departDelay="13.90" arrival="292.50" arrivalLane="ce_0" arrivalPos="992.80" arrivalSpeed="8.12" duration="245.60" routeLength="1994.90" waitingTime="0.00" waitingCount="0" stopTime="0.00" timeLoss="46.08" rerouteNo="0" devices="tripinfo_C25" vType="typeCar@C25" speedFactor="1.00" vaporized=""/>
    <tripinfo id="C26" depart="33.00" departLane="sc_0" departPos="5.10" departSpeed="10.00" departDelay="0.00" arrival="294.50" arrivalLane="cn_0" arrivalPos="992.80" arrivalSpeed="7.86" duration="261.50" routeLength="1994.90" waitingTime="0.00" waitingCount="0" stopTime="0.00" timeLoss="61.98" rerouteNo="0" devices="tripinfo_C26" vType="typeCar@C26" speedFactor="1.00" vaporized=""/>
    <tripinfo id="C27" depart="48.60" departLane="wc_0" departPos="5.10" departSpeed="10.00" departDelay="14.60" arrival="296.50" arrivalLane="ce_0" arrivalPos="992.80" arrivalSpeed="8.13" duration="247.90" routeLength="1994.90" waitingTime="0.00" waitingCount="0" stopTime="0.00" timeLoss="48.38" rerouteNo="0" devices="tripinfo_C27" vType="typeCar@C27" speedFactor="1.00" vaporized=""/>
    <tripinfo id="C28" depart="50.30" departLane="wc_0" departPos="5.10" departSpeed="10.00" departDelay="15.30" arrival="297.50" arrivalLane="ce_0" arrivalPos="992.80" arrivalSpeed="7.99" duration="247.20" routeLength="1994.90" waitingTime="0.00" waitingCount="0" stopTime="0.00" timeLoss="47.68" rerouteNo="0" devices="tripinfo_C28" vType="typeCar@C28" speedFactor="1.00" vaporized=""/>
    <tripinfo id="C29" depart="52.00" departLane="wc_0" departPos="5.10" departSpeed="10.00" departDelay="13.00" arrival="298.50" arrivalLane="ce_0" arrivalPos="992.80" arrivalSpeed="7.83" duration="246.50" routeLength="1994.90" waitingTime="0.00" waitingCount="0" stopTime="0.00" timeLoss="46.98" rerouteNo="0" devices="tripinfo_C29" vType="typeCar@C29" speedFactor="1.00" vaporized=""/>
    <tripinfo id="D30" depart="53.70" departLane="wc_0" departPos="5.10" departSpeed="10.00" departDelay="13.70" arrival="299.50" arrivalLane="ce_0" arrivalPos="992.80" arrivalSpeed="8.13" duration="245.80" routeLength="1994.90" waitingTime="0.00" waitingCount="0" stopTime="0.00" timeLoss="46.28" rerouteNo="0" devices="tripinfo_D30" vType="typeCar@D30" speedFactor="1.00" vaporized=""/>
    <tripinfo id="D31" depart="55.40" departLane="wc_0" departPos="5.10" departSpeed="10.00" departDelay="14.40" arrival="300.50" arrivalLane="ce_0" arrivalPos="992.80" arrivalSpeed="8.05" duration="245.10" routeLength="1994.90" waitingTime="0.00" waitingCount="0" stopTime="0.00" timeLoss="45.58" rerouteNo="0" devices="tripinfo_D31" vType="typeCar@D31" speedFactor="1.00" vaporized=""/>
    <tripinfo id="D32" depart="57.10" departLane="wc_0" departPos="5.10" departSpeed="10.00" departDelay="15.10" arrival="301.50" arrivalLane="ce_0" arrivalPos="992.80" arrivalSpeed="8.04" duration="244.40" routeLength="1994.90" waitingTime="0.00" waitingCount="0" stopTime="0.00" timeLoss="44.88" rerouteNo="0" devices="tripinfo_D32" vType="typeCar@D32" speedFactor="1.00" vaporized=""/>
    <tripinfo id="D33" depart="58.80" departLane="wc_0" departPos="5.10" departSpeed="10.00" departDelay="14.80" arrival="302.50" arrivalLane="ce_0" arrivalPos="992.80" arrivalSpeed="8.15" duration="243.70" routeLength="1994.90" waitingTime="0.00" waitingCount="0" stopTime="0.00" timeLoss="44.18" rerouteNo="0" devices="tripinfo_D33" vType="typeCar@D33" speedFactor="1.00" vaporized=""/>
    <tripinfo id="D34" depart="44.00" departLane="sc_0" departPos="5.10" departSpeed="10.00" departDelay="0.00" arrival="304.50" arrivalLane="cn_0" arrivalPos="992.80" arrivalSpeed="7.83" duration="260.50" routeLength="1994.90" waitingTime="0.00" waitingCount="0" stopTime="0.00" timeLoss="60.98" rerouteNo="0" devices="tripinfo_D34" vType="typeCar@D34" speedFactor="1.00" vaporized=""/>
    <tripinfo id="D35" depart="60.50" departLane="wc_0" departPos="5.10" departSpeed="10.00" departDelay="15.50" arrival="306.50" arrivalLane="ce_0" arrivalPos="992.80" arrivalSpeed="7.88" duration="246.00" routeLength="1994.90" waitingTime="0.00" waitingCount="0" stopTime="0.00" timeLoss="46.48" rerouteNo="0" devices="tripinfo_D35" vType="typeCar@D35" speedFactor="1.00" vaporized=""/>
    <tripinfo id="D36" depart="62.20" departLane="wc_0" departPos="5.10" departSpeed="10.00" departDelay="15.20" arrival="307.50" arrivalLane="ce_0" arrivalPos="992.80" arrivalSpeed="8.00" duration="245.30" routeLength="1994.90" waitingTime="0.00" waitingCount="0" stopTime="0.00" timeLoss="45.78" rerouteNo="0" devices="tripinfo_D36" vType="typeCar@D36" speedFactor="1.00" vaporized=""/>
    <tripinfo id="D37" depart="63.90" departLane="wc_0" departPos="5.10" departSpeed="10.00" departDelay="13.90" arrival="308.50" arrivalLane="ce_0" arrivalPos="992.80" arrivalSpeed="8.12" duration="244.60" routeLength="1994.90" waitingTime="0.00" waitingCount="0" stopTime="0.00" timeLoss="45.08" rerouteNo="0" devices="tripinfo_D37" vType="typeCar@D37" speedFactor="1.00" vaporized=""/>
    <tripinfo id="D38" depart="65.60" departLane="wc_0" departPos="5.10" departSpeed="10.00" departDelay="13.60" arrival="309.50" arrivalLane="ce_0" arrivalPos="992.80" arrivalSpeed="8.06" duration="243.90" routeLength="1994.90" waitingTime="0.00" waitingCount="0" stopTime="0.00" timeLoss="44.38" rerouteNo="0" devices="tripinfo_D38" vType="typeCar@D38" speedFactor="1.00" vaporized=""/>
    <tripinfo id="D39" depart="67.30" departLane="wc_0" departPos="5.10" departSpeed="10.00" departDelay="14.30" arrival="310.50" arrivalLane="ce_0" arrivalPos="992.80" arrivalSpeed="7.95" duration="243.20" routeLength="1994.90" waitingTime="0.00" waitingCount="0" stopTime="0.00" timeLoss="43.68" rerouteNo="0" devices="tripinfo_D39" vType="typeCar@D39" speedFactor="1.00" vaporized=""/>
    <tripinfo id="E40" depart="69.00" departLane="wc_0" departPos="5.10" departSpeed="10.00" departDelay="15.00" arrival="311.50" arrivalLane="ce_0" arrivalPos="992.80" arrivalSpeed="8.09" duration="242.50" routeLength="1994.90" waitingTime="0.00" waitingCount="0" stopTime="0.00" timeLoss="42.98" rerouteNo="0" devices="tripinfo_E40" vType="typeCar@E40" speedFactor="1.00" vaporized=""/>
    <tripinfo id="E41" depart="70.70" departLane="wc_0" departPos="5.10" departSpeed="10.00" departDelay="14.70" arrival="312.50" arrivalLane="ce_0" arrivalPos="992.80" arrivalSpeed="7.89" duration="241.80" routeLength="1994.90" waitingTime="0.00" waitingCount="0" stopTime="0.00" timeLoss="42.28" rerouteNo="0" devices="tripinfo_E41" vType="typeCar@E41" speedFactor="1.00" vaporized=""/>
    <tripinfo id="E42" depart="56.00" departLane="sc_0" departPos="5.10" departSpeed="10.00" departDelay="0.00" arrival="314.50" arrivalLane="cn_0" arrivalPos="992.80" arrivalSpeed="8.10" duration="258.50" routeLength="1994.90" waitingTime="0.00" waitingCount="0" stopTime="0.00" timeLoss="58.98" rerouteNo="0" devices="tripinfo_E42" vType="typeCar@E42" speedFactor="1.00" vaporized=""/>
    <tripinfo id="E43" depart="72.40" departLane="wc_0" departPos="5.10" departSpeed="10.00" departDelay="14.40" arrival="316.50" arrivalLane="ce_0" arrivalPos="992.80" arrivalSpeed="8.13" duration="244.10" routeLength="1994.90" waitingTime="0.00" waitingCount="0" stopTime="0.00" timeLoss="44.58" rerouteNo="0" devices="tripinfo_E43" vType="typeCar@E43" speedFactor="1.00" vaporized=""/>
    <tripinfo id="E44" depart="59.00" departLane="sc_0" departPos="5.10" departSpeed="10.00" departDelay="0.00" arrival="318.50" arrivalLane="cn_0" arrivalPos="992.80" arrivalSpeed="7.85" duration="259.50" routeLength="1994.90" waitingTime="0.00" waitingCount="0" stopTime="0.00" timeLoss="59.98" rerouteNo="0" devices="tripinfo_E44" vType="typeCar@E44" speedFactor="1.00" vaporized=""/>
    <tripinfo id="E45" depart="74.10" departLane="wc_0" departPos="5.10" departSpeed="10.00" departDelay="12.10" arrival="320.50" arrivalLane="ce_0" arrivalPos="992.80" arrivalSpeed="8.01" duration="246.40" routeLength="1994.90" waitingTime="0.00" waitingCount="0" stopTime="0.00" timeLoss="46.88" rerouteNo="0" devices="tripinfo_E45" vType="typeCar@E45" speedFactor="1.00" vaporized=""/>
    <tripinfo id="E46" depart="75.80" departLane="wc_0" departPos="5.10" departSpeed="10.00" departDelay="12.80" arrival="321.50" arrivalLane="ce_0" arrivalPos="992.80" arrivalSpeed="8.17" duration="245.70" routeLength="1994.90" waitingTime="0.00" waitingCount="0" stopTime="0.00" timeLoss="46.18" rerouteNo="0" devices="tripinfo_E46" vType="typeCar@E46" speedFactor="1.00" vaporized=""/>
    <tripinfo id="E47" depart="77.50" departLane="wc_0" departPos="5.10" departSpeed="10.00" departDelay="12.50" arrival="322.50" arrivalLane="ce_0" arrivalPos="992.80" arrivalSpeed="8.12" duration="245.00" routeLength="1994.90" waitingTime="0.00" waitingCount="0" stopTime="0.00" timeLoss="45.48" rerouteNo="0" devices="tripinfo_E47" vType="typeCar@E47" speedFactor="1.00" vaporized=""/>
    <tripinfo id="E48" depart="65.00" departLane="sc_0" departPos="5.10" departSpeed="10.00" departDelay="0.00" arrival="324.50" arrivalLane="cn_0" arrivalPos="992.80" arrivalSpeed="7.89" duration="259.50" routeLength="1994.90" waitingTime="0.00" waitingCount="0" stopTime="0.00" timeLoss="59.98" rerouteNo="0" devices="tripinfo_E48" vType="typeCar@E48" speedFactor="1.00" vaporized=""/>
    <tripinfo id="E49" depart="79.20" departLane="wc_0" departPos="5.10" departSpeed="10.00" departDelay="12.20" arrival="326.50" arrivalLane="ce_0" arrivalPos="992.80" arrivalSpeed="8.11" duration="247.30" routeLength="1994.90" waitingTime="0.00" waitingCount="0" stopTime="0.00" timeLoss="47.78" rerouteNo="0" devices="tripinfo_E49" vType="typeCar@E49" speedFactor="1.00" vaporized=""/>
    <tripinfo id="F50" depart="80.90" departLane="wc_0" departPos="5.10" departSpeed="10.00" departDelay="12.90" arrival="327.50" arrivalLane="ce_0" arrivalPos="992.80" arrivalSpeed="8.13" duration="246.60" routeLength="1994.90" waitingTime="0.00" waitingCount="0" stopTime="0.00" timeLoss="47.08" rerouteNo="0" devices="tripinfo_F50" vType="typeCar@F50" speedFactor="1.00" vaporized=""/>
    <tripinfo id="F51" depart="69.00" departLane="sc_0" departPos="5.10" departSpeed="10.00" departDelay="0.00" arrival="329.50" arrivalLane="cn_0" arrivalPos="992.80" arrivalSpeed="7.87" duration="260.50" routeLength="1994.90" waitingTime="0.00" waitingCount="0" stopTime="0.00" timeLoss="60.98" rerouteNo="0" devices="tripinfo_F51" vType="typeCar@F51" speedFactor="1.00" vaporized=""/>
    <tripinfo id="F52" depart="82.60" departLane="wc_0" departPos="5.10" departSpeed="10.00" departDelay="12.60" arrival="331.50" arrivalLane="ce_0" arrivalPos="992.80" arrivalSpeed="7.97" duration="248.90" routeLength="1994.90" waitingTime="0.00" waitingCount="0" stopTime="0.00" timeLoss="49.38" rerouteNo="0" devices="tripinfo_F52" vType="typeCar@F52" speedFactor="1.00" vaporized=""/>
    <tripinfo id="F53" depart="84.30" departLane="wc_0" departPos="5.10" departSpeed="10.00" departDelay="13.30" arrival="332.50" arrivalLane="ce_0" arrivalPos="992.80" arrivalSpeed="7.94" duration="248.20" routeLength="1994.90" waitingTime="0.00" waitingCount="0" stopTime="0.00" timeLoss="48.68" rerouteNo="0" devices="tripinfo_F53" vType="typeCar@F53" speedFactor="1.00" vaporized=""/>
    <tripinfo id="F54" depart="86.00" departLane="wc_0" departPos="5.10" departSpeed="10.00" departDelay="14.00" arrival="333.50" arrivalLane="ce_0" arrivalPos="992.80" arrivalSpeed="8.00" duration="247.50" routeLength="1994.90" waitingTime="0.00" waitingCount="0" stopTime="0.00" timeLoss="47.98" rerouteNo="0" devices="tripinfo_F54" vType="typeCar@F54" speedFactor="1.00" vaporized=""/>
    <tripinfo id="F55" depart="88.30" departLane="wc_0" departPos="5.10" departSpeed="10.00" departDelay="15.30" arrival="334.50" arrivalLane="ce_0" arrivalPos="992.80" arrivalSpeed="8.12" duration="246.20" routeLength="1994.90" waitingTime="0.00" waitingCount="0" stopTime="0.00" timeLoss="46.68" rerouteNo="0" devices="tripinfo_F55" vType="typeCar@F55" speedFactor="1.00" vaporized=""/>
    <tripinfo id="F56" depart="90.00" departLane="wc_0" departPos="5.10" departSpeed="10.00" departDelay="16.00" arrival="335.50" arrivalLane="ce_0" arrivalPos="992.80" arrivalSpeed="7.70" duration="245.50" routeLength="1994.90" waitingTime="0.00" waitingCount="0" stopTime="0.00" timeLoss="45.98" rerouteNo="0" devices="tripinfo_F56" vType="typeCar@F56" speedFactor="1.00" vaporized=""/>
    <tripinfo id="F57" depart="91.70" departLane="wc_0" departPos="5.10" departSpeed="10.00" departDelay="15.70" arrival="336.50" arrivalLane="ce_0" arrivalPos="992.80" arrivalSpeed="8.13" duration="244.80" routeLength="1994.90" waitingTime="0.00" waitingCount="0" stopTime="0.00" timeLoss="45.28" rerouteNo="0" devices="tripinfo_F57" vType="typeCar@F57" speedFactor="1.00" vaporized=""/>
    <tripinfo id="F58" depart="93.40" departLane="wc_0" departPos="5.10" departSpeed="10.00" departDelay="16.40" arrival="337.50" arrivalLane="ce_0" arrivalPos="992.80" arrivalSpeed="8.13" duration="244.10" routeLength="1994.90" waitingTime="0.00" waitingCount="0" stopTime="0.00" timeLoss="44.58" rerouteNo="0" devices="tripinfo_F58" vType="typeCar@F58" speedFactor="1.00" vaporized=""/>
    <tripinfo id="F59" depart="95.10" departLane="wc_0" departPos="5.10" departSpeed="10.00" departDelay="17.10" arrival="338.50" arrivalLane="ce_0" arrivalPos="992.80" arrivalSpeed="7.96" duration="243.40" routeLength="1994.90" waitingTime="0.00" waitingCount="0" stopTime="0.00" timeLoss="43.88" rerouteNo="0" devices="tripinfo_F59" vType="typeCar@F59" speedFactor="1.00" vaporized=""/>
    <tripinfo id="G60" depart="96.80" departLane="wc_0" departPos="5.10" departSpeed="10.00" departDelay="17.80" arrival="339.50" arrivalLane="ce_0" arrivalPos="992.80" arrivalSpeed="8.06" duration="242.70" routeLength="1994.90" waitingTime="0.00" waitingCount="0" stopTime="0.00" timeLoss="43.18" rerouteNo="0" devices="tripinfo_G60" vType="typeCar@G60" speedFactor="1.00" vaporized=""/>
    <tripinfo id="G61" depart="98.50" departLane="wc_0" departPos="5.10" departSpeed="10.00" departDelay="18.50" arrival="340.50" arrivalLane="ce_0" arrivalPos="992.80" arrivalSpeed="7.92" duration="242.00" routeLength="1994.90" waitingTime="0.00" waitingCount="0" stopTime="0.00" timeLoss="42.48" rerouteNo="0" devices="tripinfo_G61" vType="typeCar@G61" speedFactor="1.00" vaporized=""/>
    <tripinfo id="G62" depart="100.20" departLane="wc_0" departPos="5.10" departSpeed="10.00" departDelay="19.20" arrival="341.50" arrivalLane="ce_0" arrivalPos="992.80" arrivalSpeed="7.96" duration="241.30" routeLength="1994.90" waitingTime="0.00" waitingCount="0" stopTime="0.00" timeLoss="41.78" rerouteNo="0" devices="tripinfo_G62" vType="typeCar@G62" speedFactor="1.00" vaporized=""/>
    <tripinfo id="G63" depart="82.00" departLane="sc_0" departPos="5.10" departSpeed="10.00" departDelay="0.00" arrival="343.50" arrivalLane="cn_0" arrivalPos="992.80" arrivalSpeed="8.04" duration="261.50" routeLength="1994.90" waitingTime="0.00" waitingCount="0" stopTime="0.00" timeLoss="61.98" rerouteNo="0" devices="tripinfo_G63" vType="typeCar@G63" speedFactor="1.00" vaporized=""/>
    <tripinfo id="G64" depart="101.90" departLane="wc_0" departPos="5.10" departSpeed="10.00" departDelay="18.90" arrival="345.50" arrivalLane="ce_0" arrivalPos="992.80" arrivalSpeed="7.74" duration="243.60" routeLength="1994.90" waitingTime="0.00" waitingCount="0" stopTime="0.00" timeLoss="44.08" rerouteNo="0" devices="tripinfo_G64" vType="typeCar@G64" speedFactor="1.00" vaporized=""/>
    <tripinfo id="G65" depart="103.60" departLane="wc_0" departPos="5.10" departSpeed="10.00" departDelay="19.60" arrival="346.50" arrivalLane="ce_0" arrivalPos="992.80" arrivalSpeed="8.16" duration="242.90" routeLength="1994.90" waitingTime="0.00" waitingCount="0" stopTime="0.00" timeLoss="43.38" rerouteNo="0" devices="tripinfo_G65" vType="typeCar@G65" speedFactor="1.00" vaporized=""/>
    <tripinfo id="G66" depart="84.00" departLane="sc_0" departPos="5.10" departSpeed="10.00" departDelay="0.00" arrival="348.50" arrivalLane="cn_0" arrivalPos="992.80" arrivalSpeed="7.73" duration="264.50" routeLength="1994.90" waitingTime="0.00" waitingCount="0" stopTime="0.00" timeLoss="64.98" rerouteNo="0" devices="tripinfo_G66" vType="typeCar@G66" speedFactor="1.00" vaporized=""/>
    <tripinfo id="G67" depart="105.30" departLane="wc_0" departPos="5.10" departSpeed="10.00" departDelay="19.30" arrival="350.50" arrivalLane="ce_0" arrivalPos="992.80" arrivalSpeed="8.16" duration="245.20" routeLength="1994.90" waitingTime="0.00" waitingCount="0" stopTime="0.00" timeLoss="45.68" rerouteNo="0" devices="tripinfo_G67" vType="typeCar@G67" speedFactor="1.00" vaporized=""/>
    <tripinfo id="G68" depart="87.00" departLane="sc_0" departPos="5.10" departSpeed="10.00" departDelay="0.00" arrival="352.50" arrivalLane="cn_0" arrivalPos="992.80" arrivalSpeed="8.10" duration="265.50" routeLength="1994.90" waitingTime="0.00" waitingCount="0" stopTime="0.00" timeLoss="65.98" rerouteNo="0" devices="tripinfo_G68" vType="typeCar@G68" speedFactor="1.00" vaporized=""/>
    <tripinfo id="G69" depart="107.00" departLane="wc_0" departPos="5.10" departSpeed="10.00" departDelay="19.00" arrival="354.50" arrivalLane="ce_0" arrivalPos="992.80" arrivalSpeed="8.04" duration="247.50" routeLength="1994.90" waitingTime="0.00" waitingCount="0" stopTime="0.00" timeLoss="47.98" rerouteNo="0" devices="tripinfo_G69" vType="typeCar@G69" speedFactor="1.00" vaporized=""/>
    <tripinfo id="H70" depart="108.70" departLane="wc_0" departPos="5.10" departSpeed="10.00" departDelay="19.70" arrival="355.50" arrivalLane="ce_0" arrivalPos="992.80" arrivalSpeed="7.98" duration="246.80" routeLength="1994.90" waitingTime="0.00" waitingCount="0" stopTime="0.00" timeLoss="47.28" rerouteNo="0" devices="tripinfo_H70" vType="typeCar@H70" speedFactor="1.00" vaporized=""/>
    <tripinfo id="H71" depart="91.00" departLane="sc_0" departPos="5.10" departSpeed="10.00" departDelay="0.00" arrival="357.50" arrivalLane="cn_0" arrivalPos="992.80" arrivalSpeed="8.15" duration="266.50" routeLength="1994.90" waitingTime="0.00" waitingCount="0" stopTime="0.00" timeLoss="66.98" rerouteNo="0" devices="tripinfo_H71" vType="typeCar@H71" speedFactor="1.00" vaporized=""/>
    <tripinfo id="H72" depart="110.40" departLane="wc_0" departPos="5.10" departSpeed="10.00" departDelay="18.40" arrival="359.50" arrivalLane="ce_0" arrivalPos="992.80" arrivalSpeed="7.82" duration="249.10" routeLength="1994.90" waitingTime="0.00" waitingCount="0" stopTime="0.00" timeLoss="49.58" rerouteNo="0" devices="tripinfo_H72" vType="typeCar@H72" speedFactor="1.00" vaporized=""/>
    <tripinfo id="H73" depart="112.10" departLane="wc_0" departPos="5.10" departSpeed="10.00" departDelay="18.10" arrival="360.50" arrivalLane="ce_0" arrivalPos="992.80" arrivalSpeed="8.03" duration="248.40" routeLength="1994.90" waitingTime="0.00" waitingCount="0" stopTime="0.00" timeLoss="48.88" rerouteNo="0" devices="tripinfo_H73" vType="typeCar@H73" speedFactor="1.00" vaporized=""/>