<?xml version="1.0" encoding="UTF-8"?>

<!-- generated on 2022-07-30 15:05:33 by Eclipse SUMO GUI Version 1.13.0
<configuration xmlns:xsi="http://www.w3.org/2001/XMLSchema-instance" xsi:noNamespaceSchemaLocation="http://sumo.dlr.de/xsd/sumoConfiguration.xsd">

    <input>
        <net-file value="net.net.xml"/>
        <route-files value="routes.rou.xml"/>
    </input>

    <output>
        <tripinfo-output value="raw_data/(1,4,0)tripinfo.xml"/>
    </output>

    <time>
        <begin value="0"/>
        <step-length value="0.1"/>
    </time>

    <processing>
        <collision.action value="warn"/>
        <collision.stoptime value="1"/>
        <collision.mingap-factor value="1"/>
    </processing>

    <report>
        <verbose value="false"/>
        <log value="log.txt"/>
        <duration-log.statistics value="true"/>
        <no-step-log value="true"/>
    </report>

    <traci_server>
        <remote-port value="10394"/>
    </traci_server>

    <gui_only>
        <tracker-interval value="0.1"/>
    </gui_only>

</configuration>
-->

<tripinfos xmlns:xsi="http://www.w3.org/2001/XMLSchema-instance" xsi:noNamespaceSchemaLocation="http://sumo.dlr.de/xsd/tripinfo_file.xsd">
    <tripinfo id="A0" depart="0.00" departLane="wc_0" departPos="5.10" departSpeed="10.00" departDelay="0.00" arrival="252.50" arrivalLane="ce_0" arrivalPos="992.80" arrivalSpeed="8.13" duration="252.50" routeLength="1994.90" waitingTime="0.00" waitingCount="0" stopTime="0.00" timeLoss="52.98" rerouteNo="0" devices="tripinfo_A0" vType="typeCar@A0" speedFactor="1.00" vaporized=""/>
    <tripinfo id="A1" depart="0.00" departLane="sc_0" departPos="5.10" departSpeed="10.00" departDelay="0.00" arrival="254.50" arrivalLane="cn_0" arrivalPos="992.80" arrivalSpeed="8.07" duration="254.50" routeLength="1994.90" waitingTime="0.00" waitingCount="0" stopTime="0.00" timeLoss="54.98" rerouteNo="0" devices="tripinfo_A1" vType="typeCar@A1" speedFactor="1.00" vaporized=""/>
    <tripinfo id="A2" depart="1.70" departLane="wc_0" departPos="5.10" departSpeed="10.00" departDelay="0.70" arrival="256.50" arrivalLane="ce_0" arrivalPos="992.80" arrivalSpeed="7.89" duration="254.80" routeLength="1994.90" waitingTime="0.00" waitingCount="0" stopTime="0.00" timeLoss="55.28" rerouteNo="0" devices="tripinfo_A2" vType="typeCar@A2" speedFactor="1.00" vaporized=""/>
    <tripinfo id="A3" depart="3.40" departLane="wc_0" departPos="5.10" departSpeed="10.00" departDelay="1.40" arrival="257.50" arrivalLane="ce_0" arrivalPos="992.80" arrivalSpeed="7.93" duration="254.10" routeLength="1994.90" waitingTime="0.00" waitingCount="0" stopTime="0.00" timeLoss="54.58" rerouteNo="0" devices="tripinfo_A3" vType="typeCar@A3" speedFactor="1.00" vaporized=""/>
    <tripinfo id="A4" depart="3.00" departLane="sc_0" departPos="5.10" departSpeed="10.00" departDelay="0.00" arrival="259.50" arrivalLane="cn_0" arrivalPos="992.80" arrivalSpeed="8.12" duration="256.50" routeLength="1994.90" waitingTime="0.00" waitingCount="0" stopTime="0.00" timeLoss="56.98" rerouteNo="0" devices="tripinfo_A4" vType="typeCar@A4" speedFactor="1.00" vaporized=""/>
    <tripinfo id="A5" depart="6.50" departLane="wc_0" departPos="5.10" departSpeed="10.00" departDelay="2.50" arrival="261.50" arrivalLane="ce_0" arrivalPos="992.80" arrivalSpeed="7.96" duration="255.00" routeLength="1994.90" waitingTime="0.00" waitingCount="0" stopTime="0.00" timeLoss="55.48" rerouteNo="0" devices="tripinfo_A5" vType="typeCar@A5" speedFactor="1.00" vaporized=""/>
    <tripinfo id="A6" depart="4.70" departLane="sc_0" departPos="5.10" departSpeed="10.00" departDelay="0.70" arrival="263.50" arrivalLane="cn_0" arrivalPos="992.80" arrivalSpeed="8.03" duration="258.80" routeLength="1994.90" waitingTime="0.00" waitingCount="0" stopTime="0.00" timeLoss="59.28" rerouteNo="0" devices="tripinfo_A6" vType="typeCar@A6" speedFactor="1.00" vaporized=""/>
    <tripinfo id="A7" depart="9.40" departLane="wc_0" departPos="5.10" departSpeed="10.00" departDelay="4.40" arrival="265.50" arrivalLane="ce_0" arrivalPos="992.80" arrivalSpeed="8.01" duration="256.10" routeLength="1994.90" waitingTime="0.00" waitingCount="0" stopTime="0.00" timeLoss="56.58" rerouteNo="0" devices="tripinfo_A7" vType="typeCar@A7" speedFactor="1.00" vaporized=""/>
    <tripinfo id="A8" depart="12.30" departLane="wc_0" departPos="5.10" departSpeed="10.00" departDelay="6.30" arrival="266.50" arrivalLane="ce_0" arrivalPos="992.80" arrivalSpeed="8.13" duration="254.20" routeLength="1994.90" waitingTime="0.00" waitingCount="0" stopTime="0.00" timeLoss="54.68" rerouteNo="0" devices="tripinfo_A8" vType="typeCar@A8" speedFactor="1.00" vaporized=""/>
    <tripinfo id="A9" depart="6.90" departLane="sc_0" departPos="5.10" departSpeed="10.00" departDelay="0.90" arrival="268.50" arrivalLane="cn_0" arrivalPos="992.80" arrivalSpeed="8.15" duration="261.60" routeLength="1994.90" waitingTime="0.00" waitingCount="0" stopTime="0.00" timeLoss="62.08" rerouteNo="0" devices="tripinfo_A9" vType="typeCar@A9" speedFactor="1.00" vaporized=""/>
    <tripinfo id="B10" depart="15.10" departLane="wc_0" departPos="5.10" departSpeed="10.00" departDelay="8.10" arrival="270.50" arrivalLane="ce_0" arrivalPos="992.80" arrivalSpeed="8.11" duration="255.40" routeLength="1994.90" waitingTime="0.00" waitingCount="0" stopTime="0.00" timeLoss="55.88" rerouteNo="0" devices="tripinfo_B10" vType="typeCar@B10" speedFactor="1.00" vaporized=""/>
    <tripinfo id="B11" depart="18.00" departLane="wc_0" departPos="5.10" departSpeed="10.00" departDelay="10.00" arrival="271.50" arrivalLane="ce_0" arrivalPos="992.80" arrivalSpeed="7.95" duration="253.50" routeLength="1994.90" waitingTime="0.00" waitingCount="0" stopTime="0.00" timeLoss="53.98" rerouteNo="0" devices="tripinfo_B11" vType="typeCar@B11" speedFactor="1.00" vaporized=""/>
    <tripinfo id="B12" depart="9.50" departLane="sc_0" departPos="5.10" departSpeed="10.00" departDelay="0.50" arrival="273.50" arrivalLane="cn_0" arrivalPos="992.80" arrivalSpeed="7.82" duration="264.00" routeLength="1994.90" waitingTime="0.00" waitingCount="0" stopTime="0.00" timeLoss="64.48" rerouteNo="0" devices="tripinfo_B12" vType="typeCar@B12" speedFactor="1.00" vaporized=""/>
    <tripinfo id="B13" depart="20.90" departLane="wc_0" departPos="5.10" departSpeed="10.00" departDelay="9.90" arrival="275.50" arrivalLane="ce_0" arrivalPos="992.80" arrivalSpeed="7.97" duration="254.60" routeLength="1994.90" waitingTime="0.00" waitingCount="0" stopTime="0.00" timeLoss="55.08" rerouteNo="0" devices="tripinfo_B13" vType="typeCar@B13" speedFactor="1.00" vaporized=""/>
    <tripinfo id="B14" depart="12.10" departLane="sc_0" departPos="5.10" departSpeed="10.00" departDelay="1.10" arrival="277.50" arrivalLane="cn_0" arrivalPos="992.80" arrivalSpeed="8.17" duration="265.40" routeLength="1994.90" waitingTime="0.00" waitingCount="0" stopTime="0.00" timeLoss="65.88" rerouteNo="0" devices="tripinfo_B14" vType="typeCar@B14" speedFactor="1.00" vaporized=""/>
    <tripinfo id="B15" depart="23.80" departLane="wc_0" departPos="5.10" departSpeed="10.00" departDelay="10.80" arrival="279.50" arrivalLane="ce_0" arrivalPos="992.80" arrivalSpeed="7.83" duration="255.70" routeLength="1994.90" waitingTime="0.00" waitingCount="0" stopTime="0.00" timeLoss="56.18" rerouteNo="0" devices="tripinfo_B15" vType="typeCar@B15" speedFactor="1.00" vaporized=""/>
    <tripinfo id="B16" depart="14.70" departLane="sc_0" departPos="5.10" departSpeed="10.00" departDelay="1.70" arrival="281.50" arrivalLane="cn_0" arrivalPos="992.80" arrivalSpeed="8.02" duration="266.80" routeLength="1994.90" waitingTime="0.00" waitingCount="0" stopTime="0.00" timeLoss="67.28" rerouteNo="0" devices="tripinfo_B16" vType="typeCar@B16" speedFactor="1.00" vaporized=""/>
    <tripinfo id="B17" depart="26.70" departLane="wc_0" departPos="5.10" departSpeed="10.00" departDelay="10.70" arrival="283.50" arrivalLane="ce_0" arrivalPos="992.80" arrivalSpeed="7.75" duration="256.80" routeLength="1994.90" waitingTime="0.00" waitingCount="0" stopTime="0.00" timeLoss="57.28" rerouteNo="0" devices="tripinfo_B17" vType="typeCar@B17" speedFactor="1.00" vaporized=""/>
    <tripinfo id="B18" depart="29.50" departLane="wc_0" departPos="5.10" departSpeed="10.00" departDelay="12.50" arrival="284.50" arrivalLane="ce_0" arrivalPos="992.80" arrivalSpeed="8.18" duration="255.00" routeLength="1994.90" waitingTime="0.00" waitingCount="0" stopTime="0.00" timeLoss="55.48" rerouteNo="0" devices="tripinfo_B18" vType="typeCar@B18" speedFactor="1.00" vaporized=""/>
    <tripinfo id="B19" depart="32.40" departLane="wc_0" departPos="5.10" departSpeed="10.00" departDelay="12.40" arrival="285.50" arrivalLane="ce_0" arrivalPos="992.80" arrivalSpeed="8.07" duration="253.10" routeLength="1994.90" waitingTime="0.00" waitingCount="0" stopTime="0.00" timeLoss="53.58" rerouteNo="0" devices="tripinfo_B19" vType="typeCar@B19" speedFactor="1.00" vaporized=""/>
    <tripinfo id="C20" depart="20.00" departLane="sc_0" departPos="5.10" departSpeed="10.00" departDelay="0.00" arrival="287.50" arrivalLane="cn_0" arrivalPos="992.80" arrivalSpeed="7.91" duration="267.50" routeLength="1994.90" waitingTime="0.00" waitingCount="0" stopTime="0.00" timeLoss="67.98" rerouteNo="0" devices="tripinfo_C20" vType="typeCar@C20" speedFactor="1.00" vaporized=""/>
    <tripinfo id="C21" depart="35.30" departLane="wc_0" departPos="5.10" departSpeed="10.00" departDelay="14.30" arrival="289.50" arrivalLane="ce_0" arrivalPos="992.80" arrivalSpeed="8.01" duration="254.20" routeLength="1994.90" waitingTime="0.00" waitingCount="0" stopTime="0.00" timeLoss="54.68" rerouteNo="0" devices="tripinfo_C21" vType="typeCar@C21" speedFactor="1.00" vaporized=""/>
    <tripinfo id="C22" depart="38.20" departLane="wc_0" departPos="5.10" departSpeed="10.00" departDelay="16.20" arrival="290.50" arrivalLane="ce_0" arrivalPos="992.80" arrivalSpeed="7.74" duration="252.30" routeLength="1994.90" waitingTime="0.00" waitingCount="0" stopTime="0.00" timeLoss="52.78" rerouteNo="0" devices="tripinfo_C22" vType="typeCar@C22" speedFactor="1.00" vaporized=""/>
    <tripinfo id="C23" depart="41.00" departLane="wc_0" departPos="5.10" departSpeed="10.00" departDelay="18.00" arrival="291.50" arrivalLane="ce_0" arrivalPos="992.80" arrivalSpeed="7.88" duration="250.50" routeLength="1994.90" waitingTime="0.00" waitingCount="0" stopTime="0.00" timeLoss="50.98" rerouteNo="0" devices="tripinfo_C23" vType="typeCar@C23" speedFactor="1.00" vaporized=""/>
    <tripinfo id="C24" depart="43.90" departLane="wc_0" departPos="5.10" departSpeed="10.00" departDelay="19.90" arrival="292.50" arrivalLane="ce_0" arrivalPos="992.80" arrivalSpeed="8.17" duration="248.60" routeLength="1994.90" waitingTime="0.00" waitingCount="0" stopTime="0.00" timeLoss="49.08" rerouteNo="0" devices="tripinfo_C24" vType="typeCar@C24" speedFactor="1.00" vaporized=""/>
    <tripinfo id="C25" depart="46.70" departLane="wc_0" departPos="5.10" departSpeed="10.00" departDelay="21.70" arrival="293.50" arrivalLane="ce_0" arrivalPos="992.80" arrivalSpeed="8.19" duration="246.80" routeLength="1994.90" waitingTime="0.00" waitingCount="0" stopTime="0.00" timeLoss="47.28" rerouteNo="0" devices="tripinfo_C25" vType="typeCar@C25" speedFactor="1.00" vaporized=""/>
    <tripinfo id="C26" depart="48.40" departLane="wc_0" departPos="5.10" departSpeed="10.00" departDelay="22.40" arrival="294.50" arrivalLane="ce_0" arrivalPos="992.80" arrivalSpeed="7.80" duration="246.10" routeLength="1994.90" waitingTime="0.00" waitingCount="0" stopTime="0.00" timeLoss="46.58" rerouteNo="0" devices="tripinfo_C26" vType="typeCar@C26" speedFactor="1.00" vaporized=""/>
    <tripinfo id="C27" depart="50.10" departLane="wc_0" departPos="5.10" departSpeed="10.00" departDelay="23.10" arrival="295.50" arrivalLane="ce_0" arrivalPos="992.80" arrivalSpeed="7.83" duration="245.40" routeLength="1994.90" waitingTime="0.00" waitingCount="0" stopTime="0.00" timeLoss="45.88" rerouteNo="0" devices="tripinfo_C27" vType="typeCar@C27" speedFactor="1.00" vaporized=""/>
    <tripinfo id="C28" depart="51.80" departLane="wc_0" departPos="5.10" departSpeed="10.00" departDelay="23.80" arrival="296.50" arrivalLane="ce_0" arrivalPos="992.80" arrivalSpeed="8.14" duration="244.70" routeLength="1994.90" waitingTime="0.00" waitingCount="0" stopTime="0.00" timeLoss="45.18" rerouteNo="0" devices="tripinfo_C28" vType="typeCar@C28" speedFactor="1.00" vaporized=""/>
    <tripinfo id="C29" depart="53.50" departLane="wc_0" departPos="5.10" departSpeed="10.00" departDelay="24.50" arrival="297.50" arrivalLane="ce_0" arrivalPos="992.80" arrivalSpeed="8.12" duration="244.00" routeLength="1994.90" waitingTime="0.00" waitingCount="0" stopTime="0.00" timeLoss="44.48" rerouteNo="0" devices="tripinfo_C29" vType="typeCar@C29" speedFactor="1.00" vaporized=""/>
    <tripinfo id="D30" depart="55.20" departLane="wc_0" departPos="5.10" departSpeed="10.00" departDelay="24.20" arrival="298.50" arrivalLane="ce_0" arrivalPos="992.80" arrivalSpeed="7.90" duration="243.30" routeLength="1994.90" waitingTime="0.00" waitingCount="0" stopTime="0.00" timeLoss="43.78" rerouteNo="0" devices="tripinfo_D30" vType="typeCar@D30" speedFactor="1.00" vaporized=""/>
    <tripinfo id="D31" depart="56.90" departLane="wc_0" departPos="5.10" departSpeed="10.00" departDelay="23.90" arrival="299.50" arrivalLane="ce_0" arrivalPos="992.80" arrivalSpeed="7.79" duration="242.60" routeLength="1994.90" waitingTime="0.00" waitingCount="0" stopTime="0.00" timeLoss="43.08" rerouteNo="0" devices="tripinfo_D31" vType="typeCar@D31" speedFactor="1.00" vaporized=""/>
    <tripinfo id="D32" depart="33.00" departLane="sc_0" departPos="5.10" departSpeed="10.00" departDelay="0.00" arrival="301.50" arrivalLane="cn_0" arrivalPos="992.80" arrivalSpeed="8.20" duration="268.50" routeLength="1994.90" waitingTime="0.00" waitingCount="0" stopTime="0.00" timeLoss="68.98" rerouteNo="0" devices="tripinfo_D32" vType="typeCar@D32" speedFactor="1.00" vaporized=""/>
    <tripinfo id="D33" depart="58.60" departLane="wc_0" departPos="5.10" departSpeed="10.00" departDelay="24.60" arrival="303.50" arrivalLane="ce_0" arrivalPos="992.80" arrivalSpeed="7.78" duration="244.90" routeLength="1994.90" waitingTime="0.00" waitingCount="0" stopTime="0.00" timeLoss="45.38" rerouteNo="0" devices="tripinfo_D33" vType="typeCar@D33" speedFactor="1.00" vaporized=""/>
    <tripinfo id="D34" depart="60.30" departLane="wc_0" departPos="5.10" departSpeed="10.00" departDelay="25.30" arrival="304.50" arrivalLane="ce_0" arrivalPos="992.80" arrivalSpeed="8.08" duration="244.20" routeLength="1994.90" waitingTime="0.00" waitingCount="0" stopTime="0.00" timeLoss="44.68" rerouteNo="0" devices="tripinfo_D34" vType="typeCar@D34" speedFactor="1.00" vaporized=""/>
    <tripinfo id="D35" depart="62.00" departLane="wc_0" departPos="5.10" departSpeed="10.00" departDelay="25.00" arrival="305.50" arrivalLane="ce_0" arrivalPos="992.80" arrivalSpeed="7.85" duration="243.50" routeLength="1994.90" waitingTime="0.00" waitingCount="0" stopTime="0.00" timeLoss="43.98" rerouteNo="0" devices="tripinfo_D35" vType="typeCar@D35" speedFactor="1.00" vaporized=""/>
    <tripinfo id="D36" depart="63.70" departLane="wc_0" departPos="5.10" departSpeed="10.00" departDelay="24.70" arrival="306.50" arrivalLane="ce_0" arrivalPos="992.80" arrivalSpeed="8.17" duration="242.80" routeLength="1994.90" waitingTime="0.00" waitingCount="0" stopTime="0.00" timeLoss="43.28" rerouteNo="0" devices="tripinfo_D36" vType="typeCar@D36" speedFactor="1.00" vaporized=""/>
    <tripinfo id="D37" depart="65.40" departLane="wc_0" departPos="5.10" departSpeed="10.00" departDelay="25.40" arrival="307.50" arrivalLane="ce_0" arrivalPos="992.80" arrivalSpeed="8.07" duration="242.10" routeLength="1994.90" waitingTime="0.00" waitingCount="0" stopTime="0.00" timeLoss="42.58" rerouteNo="0" devices="tripinfo_D37" vType="typeCar@D37" speedFactor="1.00" vaporized=""/>
    <tripinfo id="D38" depart="67.10" departLane="wc_0" departPos="5.10" departSpeed="10.00" departDelay="26.10" arrival="308.50" arrivalLane="ce_0" arrivalPos="992.80" arrivalSpeed="8.14" duration="241.40" routeLength="1994.90" waitingTime="0.00" waitingCount="0" stopTime="0.00" timeLoss="41.88" rerouteNo="0" devices="tripinfo_D38" vType="typeCar@D38" speedFactor="1.00" vaporized=""/>
    <tripinfo id="D39" depart="68.80" departLane="wc_0" departPos="5.10" departSpeed="10.00" departDelay="26.80" arrival="309.50" arrivalLane="ce_0" arrivalPos="992.80" arrivalSpeed="8.03" duration="240.70" routeLength="1994.90" waitingTime="0.00" waitingCount="0" stopTime="0.00" timeLoss="41.18" rerouteNo="0" devices="tripinfo_D39" vType="typeCar@D39" speedFactor="1.00" vaporized=""/>
    <tripinfo id="E40" depart="70.50" departLane="wc_0" departPos="5.10" departSpeed="10.00" departDelay="26.50" arrival="310.50" arrivalLane="ce_0" arrivalPos="992.80" arrivalSpeed="8.13" duration="240.00" routeLength="1994.90" waitingTime="0.00" waitingCount="0" stopTime="0.00" timeLoss="40.48" rerouteNo="0" devices="tripinfo_E40" vType="typeCar@E40" speedFactor="1.00" vaporized=""/>
    <tripinfo id="E41" depart="44.00" departLane="sc_0" departPos="5.10" departSpeed="10.00" departDelay="0.00" arrival="312.50" arrivalLane="cn_0" arrivalPos="992.80" arrivalSpeed="7.83" duration="268.50" routeLength="1994.90" waitingTime="0.00" waitingCount="0" stopTime="0.00" timeLoss="68.98" rerouteNo="0" devices="tripinfo_E41" vType="typeCar@E41" speedFactor="1.00" vaporized=""/>
    <tripinfo id="E42" depart="72.20" departLane="wc_0" departPos="5.10" departSpeed="10.00" departDelay="27.20" arrival="314.50" arrivalLane="ce_0" arrivalPos="992.80" arrivalSpeed="7.95" duration="242.30" routeLength="1994.90" waitingTime="0.00" waitingCount="0" stopTime="0.00" timeLoss="42.78" rerouteNo="0" devices="tripinfo_E42" vType="typeCar@E42" speedFactor="1.00" vaporized=""/>
    <tripinfo id="E43" depart="73.90" departLane="wc_0" departPos="5.10" departSpeed="10.00" departDelay="27.90" arrival="315.50" arrivalLane="ce_0" arrivalPos="992.80" arrivalSpeed="8.02" duration="241.60" routeLength="1994.90" waitingTime="0.00" waitingCount="0" stopTime="0.00" timeLoss="42.08" rerouteNo="0" devices="tripinfo_E43" vType="typeCar@E43" speedFactor="1.00" vaporized=""/>
    <tripinfo id="E44" depart="75.60" departLane="wc_0" departPos="5.10" departSpeed="10.00" departDelay="28.60" arrival="316.50" arrivalLane="ce_0" arrivalPos="992.80" arrivalSpeed="7.79" duration="240.90" routeLength="1994.90" waitingTime="0.00" waitingCount="0" stopTime="0.00" timeLoss="41.38" rerouteNo="0" devices="tripinfo_E44" vType="typeCar@E44" speedFactor="1.00" vaporized=""/>
    <tripinfo id="E45" depart="77.30" departLane="wc_0" departPos="5.10" departSpeed="10.00" departDelay="27.30" arrival="317.50" arrivalLane="ce_0" arrivalPos="992.80" arrivalSpeed="7.83" duration="240.20" routeLength="1994.90" waitingTime="0.00" waitingCount="0" stopTime="0.00" timeLoss="40.68" rerouteNo="0" devices="tripinfo_E45" vType="typeCar@E45" speedFactor="1.00" vaporized=""/>
    <tripinfo id="E46" depart="79.00" departLane="wc_0" departPos="5.10" departSpeed="10.00" departDelay="28.00" arrival="318.50" arrivalLane="ce_0" arrivalPos="992.80" arrivalSpeed="8.16" duration="239.50" routeLength="1994.90" waitingTime="0.00" waitingCount="0" stopTime="0.00" timeLoss="39.98" rerouteNo="0" devices="tripinfo_E46" vType="typeCar@E46" speedFactor="1.00" vaporized=""/>
    <tripinfo id="E47" depart="80.70" departLane="wc_0" departPos="5.10" departSpeed="10.00" departDelay="28.70" arrival="319.50" arrivalLane="ce_0" arrivalPos="992.80" arrivalSpeed="8.02" duration="238.80" routeLength="1994.90" waitingTime="0.00" waitingCount="0" stopTime="0.00" timeLoss="39.28" rerouteNo="0" devices="tripinfo_E47" vType="typeCar@E47" speedFactor="1.00" vaporized=""/>
    <tripinfo id="E48" depart="82.40" departLane="wc_0" departPos="5.10" departSpeed="10.00" departDelay="29.40" arrival="320.50" arrivalLane="ce_0" arrivalPos="992.80" arrivalSpeed="7.78" duration="238.10" routeLength="1994.90" waitingTime="0.00" waitingCount="0" stopTime="0.00" timeLoss="38.58" rerouteNo="0" devices="tripinfo_E48" vType="typeCar@E48" speedFactor="1.00" vaporized=""/>
    <tripinfo id="E49" depart="84.10" departLane="wc_0" departPos="5.10" departSpeed="10.00" departDelay="30.10" arrival="321.50" arrivalLane="ce_0" arrivalPos="992.80" arrivalSpeed="8.16" duration="237.40" routeLength="1994.90" waitingTime="0.00" waitingCount="0" stopTime="0.00" timeLoss="37.88" rerouteNo="0" devices="tripinfo_E49" vType="typeCar@E49" speedFactor="1.00" vaporized=""/>
    <tripinfo id="F50" depart="85.80" departLane="wc_0" departPos="5.10" departSpeed="10.00" departDelay="29.80" arrival="322.50" arrivalLane="ce_0" arrivalPos="992.80" arrivalSpeed="7.94" duration="236.70" routeLength="1994.90" waitingTime="0.00" waitingCount="0" stopTime="0.00" timeLoss="37.18" rerouteNo="0" devices="tripinfo_F50" vType="typeCar@F50" speedFactor="1.00" vaporized=""/>
    <tripinfo id="F51" depart="56.00" departLane="sc_0" departPos="5.10" departSpeed="10.00" departDelay="0.00" arrival="324.50" arrivalLane="cn_0" arrivalPos="992.80" arrivalSpeed="7.92" duration="268.50" routeLength="1994.90" waitingTime="0.00" waitingCount="0" stopTime="0.00" timeLoss="68.98" rerouteNo="0" devices="tripinfo_F51" vType="typeCar@F51" speedFactor="1.00" vaporized=""/>
    <tripinfo id="F52" depart="87.50" departLane="wc_0" departPos="5.10" departSpeed="10.00" departDelay="29.50" arrival="326.50" arrivalLane="ce_0" arrivalPos="992.80" arrivalSpeed="8.05" duration="239.00" routeLength="1994.90" waitingTime="0.00" waitingCount="0" stopTime="0.00" timeLoss="39.48" rerouteNo="0" devices="tripinfo_F52" vType="typeCar@F52" speedFactor="1.00" vaporized=""/>
    <tripinfo id="F53" depart="89.20" departLane="wc_0" departPos="5.10" departSpeed="10.00" departDelay="30.20" arrival="327.50" arrivalLane="ce_0" arrivalPos="992.80" arrivalSpeed="8.07" duration="238.30" routeLength="1994.90" waitingTime="0.00" waitingCount="0" stopTime="0.00" timeLoss="38.78" rerouteNo="0" devices="tripinfo_F53" vType="typeCar@F53" speedFactor="1.00" vaporized=""/>
    <tripinfo id="F54" depart="59.00" departLane="sc_0" departPos="5.10" departSpeed="10.00" departDelay="0.00" arrival="329.50" arrivalLane="cn_0" arrivalPos="992.80" arrivalSpeed="8.02" duration="270.50" routeLength="1994.90" waitingTime="0.00" waitingCount="0" stopTime="0.00" timeLoss="70.98" rerouteNo="0" devices="tripinfo_F54" vType="typeCar@F54" speedFactor="1.00" vaporized=""/>
    <tripinfo id="F55" depart="90.90" departLane="wc_0" departPos="5.10" departSpeed="10.00" departDelay="30.90" arrival="331.50" arrivalLane="ce_0" arrivalPos="992.80" arrivalSpeed="8.13" duration="240.60" routeLength="1994.90" waitingTime="0.00" waitingCount="0" stopTime="0.00" timeLoss="41.08" rerouteNo="0" devices="tripinfo_F55" vType="typeCar@F55" speedFactor="1.00" vaporized=""/>
    <tripinfo id="F56" depart="92.60" departLane="wc_0" departPos="5.10" departSpeed="10.00" departDelay="31.60" arrival="332.50" arrivalLane="ce_0" arrivalPos="992.80" arrivalSpeed="7.71" duration="239.90" routeLength="1994.90" waitingTime="0.00" waitingCount="0" stopTime="0.00" timeLoss="40.38" rerouteNo="0" devices="tripinfo_F56" vType="typeCar@F56" speedFactor="1.00" vaporized=""/>
    <tripinfo id="F57" depart="94.30" departLane="wc_0" departPos="5.10" departSpeed="10.00" departDelay="32.30" arrival="333.50" arrivalLane="ce_0" arrivalPos="992.80" arrivalSpeed="7.98" duration="239.20" routeLength="1994.90" waitingTime="0.00" waitingCount="0" stopTime="0.00" timeLoss="39.68" rerouteNo="0" devices="tripinfo_F57" vType="typeCar@F57" speedFactor="1.00" vaporized=""/>
    <tripinfo id="F58" depart="96.00" departLane="wc_0" departPos="5.10" departSpeed="10.00" departDelay="33.00" arrival="334.50" arrivalLane="ce_0" arrivalPos="992.80" arrivalSpeed="8.21" duration="238.50" routeLength="1994.90" waitingTime="0.00" waitingCount="0" stopTime="0.00" timeLoss="38.98" rerouteNo="0" devices="tripinfo_F58" vType="typeCar@F58" speedFactor="1.00" vaporized=""/>
    <tripinfo id="F59" depart="97.70" departLane="wc_0" departPos="5.10" departSpeed="10.00" departDelay="32.70" arrival="335.50" arrivalLane="ce_0" arrivalPos="992.80" arrivalSpeed="8.14" duration="237.80" routeLength="1994.90" waitingTime="0.00" waitingCount="0" stopTime="0.00" timeLoss="38.28" rerouteNo="0" devices="tripinfo_F59" vType="typeCar@F59" speedFactor="1.00" vaporized=""/>
    <tripinfo id="G60" depart="65.00" departLane="sc_0" departPos="5.10" departSpeed="10.00" departDelay="0.00" arrival="337.50" arrivalLane="cn_0" arrivalPos="992.80" arrivalSpeed="7.82" duration="272.50" routeLength="1994.90" waitingTime="0.00" waitingCount="0" stopTime="0.00" timeLoss="72.98" rerouteNo="0" devices="tripinfo_G60" vType="typeCar@G60" speedFactor="1.00" vaporized=""/>
    <tripinfo id="G61" depart="99.40" departLane="wc_0" departPos="5.10" departSpeed="10.00" departDelay="32.40" arrival="339.50" arrivalLane="ce_0" arrivalPos="992.80" arrivalSpeed="8.18" duration="240.10" routeLength="1994.90" waitingTime="0.00" waitingCount="0" stopTime="0.00" timeLoss="40.58" rerouteNo="0" devices="tripinfo_G61" vType="typeCar@G61" speedFactor="1.00" vaporized=""/>
    <tripinfo id="G62" depart="101.10" departLane="wc_0" departPos="5.10" departSpeed="10.00" departDelay="33.10" arrival="340.50" arrivalLane="ce_0" arrivalPos="992.80" arrivalSpeed="8.03" duration="239.40" routeLength="1994.90" waitingTime="0.00" waitingCount="0" stopTime="0.00" timeLoss="39.88" rerouteNo="0" devices="tripinfo_G62" vType="typeCar@G62" speedFactor="1.00" vaporized=""/>
    <tripinfo id="G63" depart="102.80" departLane="wc_0" departPos="5.10" departSpeed="10.00" departDelay="33.80" arrival="341.50" arrivalLane="ce_0" arrivalPos="992.80" arrivalSpeed="8.01" duration="238.70" routeLength="1994.90" waitingTime="0.00" waitingCount="0" stopTime="0.00" timeLoss="39.18" rerouteNo="0" devices="tripinfo_G63" vType="typeCar@G63" speedFactor="1.00" vaporized=""/>
    <tripinfo id="G64" depart="69.00" departLane="sc_0" departPos="5.10" departSpeed="10.00" departDelay="0.00" arrival="343.50" arrivalLane="cn_0" arrivalPos="992.80" arrivalSpeed="8.17" duration="274.50" routeLength="1994.90" waitingTime="0.00" waitingCount="0" stopTime="0.00" timeLoss="74.98" rerouteNo="0" devices="tripinfo_G64" vType="typeCar@G64" speedFactor="1.00" vaporized=""/>
    <tripinfo id="G65" depart="104.50" departLane="wc_0" departPos="5.10" departSpeed="10.00" departDelay="34.50" arrival="345.50" arrivalLane="ce_0" arrivalPos="992.80" arrivalSpeed="8.15" duration="241.00" routeLength="1994.90" waitingTime="0.00" waitingCount="0" stopTime="0.00" timeLoss="41.48" rerouteNo="0" devices="tripinfo_G65" vType="typeCar@G65" speedFactor="1.00" vaporized=""/>
    <tripinfo id="G66" depart="106.20" departLane="wc_0" departPos="5.10" departSpeed="10.00" departDelay="35.20" arrival="346.50" arrivalLane="ce_0" arrivalPos="992.80" arrivalSpeed="7.98" duration="240.30" routeLength="1994.90" waitingTime="0.00" waitingCount="0" stopTime="0.00" timeLoss="40.78" rerouteNo="0" devices="tripinfo_G66" vType="typeCar@G66" speedFactor="1.00" vaporized=""/>
    <tripinfo id="G67" depart="107.90" departLane="wc_0" departPos="5.10" departSpeed="10.00" departDelay="35.90" arrival="347.50" arrivalLane="ce_0" arrivalPos="992.80" arrivalSpeed="8.01" duration="239.60" routeLength="1994.90" waitingTime="0.00" waitingCount="0" stopTime="0.00" timeLoss="40.08" rerouteNo="0" devices="tripinfo_G67" vType="typeCar@G67" speedFactor="1.00" vaporized=""/>
    <tripinfo id="G68" depart="109.60" departLane="wc_0" departPos="5.10" departSpeed="10.00" departDelay="36.60" arrival="348.50" arrivalLane="ce_0" arrivalPos="992.80" arrivalSpeed="7.94" duration="238.90" routeLength="1994.90" waitingTime="0.00" waitingCount="0" stopTime="0.00" timeLoss="39.38" rerouteNo="0" devices="tripinfo_G68" vType="typeCar@G68" speedFactor="1.00" vaporized=""/>
    <tripinfo id="G69" depart="111.30" departLane="wc_0" departPos="5.10" departSpeed="10.00" departDelay="37.30" arrival="349.50" arrivalLane="ce_0" arrivalPos="992.80" arrivalSpeed="7.71" duration="238.20" routeLength="1994.90" waitingTime="0.00" waitingCount="0" stopTime="0.00" timeLoss="38.68" rerouteNo="0" devices="tripinfo_G69" vType="typeCar@G69" speedFactor="1.00" vaporized=""/>
    <tripinfo id="H70" depart="113.00" departLane="wc_0" departPos="5.10" departSpeed="10.00" departDelay="37.00" arrival="350.50" arrivalLane="ce_0" arrivalPos="992.80" arrivalSpeed="8.03" duration="237.50" routeLength="1994.90" waitingTime="0.00" waitingCount="0" stopTime="0.00" timeLoss="37.98" rerouteNo="0" devices="tripinfo_H70" vType="typeCar@H70" speedFactor="1.00" vaporized=""/>
    <tripinfo id="H71" depart="114.70" departLane="wc_0" departPos="5.10" departSpeed="10.00" departDelay="37.70" arrival="351.50" arrivalLane="ce_0" arrivalPos="992.80" arrivalSpeed="8.13" duration="236.80" routeLength="1994.90" waitingTime="0.00" waitingCount="0" stopTime="0.00" timeLoss="37.28" rerouteNo="0" devices="tripinfo_H71" vType="typeCar@H71" speedFactor="1.00" vaporized=""/>
    <tripinfo id="H72" depart="116.40" departLane="wc_0" departPos="5.10" departSpeed="10.00" departDelay="38.40" arrival="352.50" arrivalLane="ce_0" arrivalPos="992.80" arrivalSpeed="8.12" duration="236.10" routeLength="1994.90" waitingTime="0.00" waitingCount="0" stopTime="0.00" timeLoss="36.58" rerouteNo="0" devices="tripinfo_H72" vType="typeCar@H72" speedFactor="1.00" vaporized=""/>
    <tripinfo id="H73" depart="118.10" departLane="wc_0" departPos="5.10" departSpeed="10.00" departDelay="39.10" arrival="353.50" arrivalLane="ce_0" arrivalPos="992.80" arrivalSpeed="8.19" duration="235.40" routeLength="1994.90" waitingTime="0.00" waitingCount="0" stopTime="0.00" timeLoss="35.88" rerouteNo="0" devices="tripinfo_H73" vType="typeCar@H73" speedFactor="1.00" vaporized=""/>