<?xml version="1.0" encoding="UTF-8"?>

<!-- generated on 2022-07-30 15:07:48 by Eclipse SUMO GUI Version 1.13.0
<configuration xmlns:xsi="http://www.w3.org/2001/XMLSchema-instance" xsi:noNamespaceSchemaLocation="http://sumo.dlr.de/xsd/sumoConfiguration.xsd">

    <input>
        <net-file value="net.net.xml"/>
        <route-files value="routes.rou.xml"/>
    </input>

    <output>
        <tripinfo-output value="raw_data/(2,0,0)tripinfo.xml"/>
    </output>

    <time>
        <begin value="0"/>
        <step-length value="0.1"/>
    </time>

    <processing>
        <collision.action value="warn"/>
        <collision.stoptime value="1"/>
        <collision.mingap-factor value="1"/>
    </processing>

    <report>
        <verbose value="false"/>
        <log value="log.txt"/>
        <duration-log.statistics value="true"/>
        <no-step-log value="true"/>
    </report>

    <traci_server>
        <remote-port value="10518"/>
    </traci_server>

    <gui_only>
        <tracker-interval value="0.1"/>
    </gui_only>

</configuration>
-->

<tripinfos xmlns:xsi="http://www.w3.org/2001/XMLSchema-instance" xsi:noNamespaceSchemaLocation="http://sumo.dlr.de/xsd/tripinfo_file.xsd">
    <tripinfo id="A0" depart="0.00" departLane="sc_0" departPos="5.10" departSpeed="10.00" departDelay="0.00" arrival="252.50" arrivalLane="cn_0" arrivalPos="992.80" arrivalSpeed="8.13" duration="252.50" routeLength="1994.90" waitingTime="0.00" waitingCount="0" stopTime="0.00" timeLoss="52.98" rerouteNo="0" devices="tripinfo_A0" vType="typeCar@A0" speedFactor="1.00" vaporized=""/>
    <tripinfo id="A1" depart="1.70" departLane="sc_0" departPos="5.10" departSpeed="10.00" departDelay="0.70" arrival="253.50" arrivalLane="cn_0" arrivalPos="992.80" arrivalSpeed="8.15" duration="251.80" routeLength="1994.90" waitingTime="0.00" waitingCount="0" stopTime="0.00" timeLoss="52.28" rerouteNo="0" devices="tripinfo_A1" vType="typeCar@A1" speedFactor="1.00" vaporized=""/>
    <tripinfo id="A2" depart="3.40" departLane="sc_0" departPos="5.10" departSpeed="10.00" departDelay="0.40" arrival="254.50" arrivalLane="cn_0" arrivalPos="992.80" arrivalSpeed="8.14" duration="251.10" routeLength="1994.90" waitingTime="0.00" waitingCount="0" stopTime="0.00" timeLoss="51.58" rerouteNo="0" devices="tripinfo_A2" vType="typeCar@A2" speedFactor="1.00" vaporized=""/>
    <tripinfo id="A3" depart="6.50" departLane="sc_0" departPos="5.10" departSpeed="10.00" departDelay="2.50" arrival="255.50" arrivalLane="cn_0" arrivalPos="992.80" arrivalSpeed="8.12" duration="249.00" routeLength="1994.90" waitingTime="0.00" waitingCount="0" stopTime="0.00" timeLoss="49.48" rerouteNo="0" devices="tripinfo_A3" vType="typeCar@A3" speedFactor="1.00" vaporized=""/>
    <tripinfo id="A4" depart="9.40" departLane="sc_0" departPos="5.10" departSpeed="10.00" departDelay="3.40" arrival="256.50" arrivalLane="cn_0" arrivalPos="992.80" arrivalSpeed="7.92" duration="247.10" routeLength="1994.90" waitingTime="0.00" waitingCount="0" stopTime="0.00" timeLoss="47.58" rerouteNo="0" devices="tripinfo_A4" vType="typeCar@A4" speedFactor="1.00" vaporized=""/>
    <tripinfo id="A5" depart="11.30" departLane="sc_0" departPos="5.10" departSpeed="10.00" departDelay="2.30" arrival="257.50" arrivalLane="cn_0" arrivalPos="992.80" arrivalSpeed="8.08" duration="246.20" routeLength="1994.90" waitingTime="0.00" waitingCount="0" stopTime="0.00" timeLoss="46.68" rerouteNo="0" devices="tripinfo_A5" vType="typeCar@A5" speedFactor="1.00" vaporized=""/>
    <tripinfo id="A6" depart="13.00" departLane="sc_0" departPos="5.10" departSpeed="10.00" departDelay="2.00" arrival="258.50" arrivalLane="cn_0" arrivalPos="992.80" arrivalSpeed="8.10" duration="245.50" routeLength="1994.90" waitingTime="0.00" waitingCount="0" stopTime="0.00" timeLoss="45.98" rerouteNo="0" devices="tripinfo_A6" vType="typeCar@A6" speedFactor="1.00" vaporized=""/>
    <tripinfo id="A7" depart="14.70" departLane="sc_0" departPos="5.10" departSpeed="10.00" departDelay="2.70" arrival="259.50" arrivalLane="cn_0" arrivalPos="992.80" arrivalSpeed="7.71" duration="244.80" routeLength="1994.90" waitingTime="0.00" waitingCount="0" stopTime="0.00" timeLoss="45.28" rerouteNo="0" devices="tripinfo_A7" vType="typeCar@A7" speedFactor="1.00" vaporized=""/>
    <tripinfo id="A8" depart="16.40" departLane="sc_0" departPos="5.10" departSpeed="10.00" departDelay="3.40" arrival="260.50" arrivalLane="cn_0" arrivalPos="992.80" arrivalSpeed="8.19" duration="244.10" routeLength="1994.90" waitingTime="0.00" waitingCount="0" stopTime="0.00" timeLoss="44.58" rerouteNo="0" devices="tripinfo_A8" vType="typeCar@A8" speedFactor="1.00" vaporized=""/>
    <tripinfo id="A9" depart="20.00" departLane="sc_0" departPos="5.10" departSpeed="10.00" departDelay="0.00" arrival="261.50" arrivalLane="cn_0" arrivalPos="992.80" arrivalSpeed="8.02" duration="241.50" routeLength="1994.90" waitingTime="0.00" waitingCount="0" stopTime="0.00" timeLoss="41.98" rerouteNo="0" devices="tripinfo_A9" vType="typeCar@A9" speedFactor="1.00" vaporized=""/>
    <tripinfo id="B10" depart="21.70" departLane="sc_0" departPos="5.10" departSpeed="10.00" departDelay="0.70" arrival="262.50" arrivalLane="cn_0" arrivalPos="992.80" arrivalSpeed="7.88" duration="240.80" routeLength="1994.90" waitingTime="0.00" waitingCount="0" stopTime="0.00" timeLoss="41.28" rerouteNo="0" devices="tripinfo_B10" vType="typeCar@B10" speedFactor="1.00" vaporized=""/>
    <tripinfo id="B11" depart="23.40" departLane="sc_0" departPos="5.10" departSpeed="10.00" departDelay="1.40" arrival="263.50" arrivalLane="cn_0" arrivalPos="992.80" arrivalSpeed="8.15" duration="240.10" routeLength="1994.90" waitingTime="0.00" waitingCount="0" stopTime="0.00" timeLoss="40.58" rerouteNo="0" devices="tripinfo_B11" vType="typeCar@B11" speedFactor="1.00" vaporized=""/>
    <tripinfo id="B12" depart="25.10" departLane="sc_0" departPos="5.10" departSpeed="10.00" departDelay="2.10" arrival="264.50" arrivalLane="cn_0" arrivalPos="992.80" arrivalSpeed="7.87" duration="239.40" routeLength="1994.90" waitingTime="0.00" waitingCount="0" stopTime="0.00" timeLoss="39.88" rerouteNo="0" devices="tripinfo_B12" vType="typeCar@B12" speedFactor="1.00" vaporized=""/>
    <tripinfo id="B13" depart="26.80" departLane="sc_0" departPos="5.10" departSpeed="10.00" departDelay="2.80" arrival="265.50" arrivalLane="cn_0" arrivalPos="992.80" arrivalSpeed="7.83" duration="238.70" routeLength="1994.90" waitingTime="0.00" waitingCount="0" stopTime="0.00" timeLoss="39.18" rerouteNo="0" devices="tripinfo_B13" vType="typeCar@B13" speedFactor="1.00" vaporized=""/>
    <tripinfo id="B14" depart="28.50" departLane="sc_0" departPos="5.10" departSpeed="10.00" departDelay="3.50" arrival="266.50" arrivalLane="cn_0" arrivalPos="992.80" arrivalSpeed="7.93" duration="238.00" routeLength="1994.90" waitingTime="0.00" waitingCount="0" stopTime="0.00" timeLoss="38.48" rerouteNo="0" devices="tripinfo_B14" vType="typeCar@B14" speedFactor="1.00" vaporized=""/>
    <tripinfo id="B15" depart="30.20" departLane="sc_0" departPos="5.10" departSpeed="10.00" departDelay="1.20" arrival="267.50" arrivalLane="cn_0" arrivalPos="992.80" arrivalSpeed="7.88" duration="237.30" routeLength="1994.90" waitingTime="0.00" waitingCount="0" stopTime="0.00" timeLoss="37.78" rerouteNo="0" devices="tripinfo_B15" vType="typeCar@B15" speedFactor="1.00" vaporized=""/>
    <tripinfo id="B16" depart="33.00" departLane="sc_0" departPos="5.10" departSpeed="10.00" departDelay="0.00" arrival="268.50" arrivalLane="cn_0" arrivalPos="992.80" arrivalSpeed="7.75" duration="235.50" routeLength="1994.90" waitingTime="0.00" waitingCount="0" stopTime="0.00" timeLoss="35.98" rerouteNo="0" devices="tripinfo_B16" vType="typeCar@B16" speedFactor="1.00" vaporized=""/>
    <tripinfo id="B17" depart="34.70" departLane="sc_0" departPos="5.10" departSpeed="10.00" departDelay="0.70" arrival="269.50" arrivalLane="cn_0" arrivalPos="992.80" arrivalSpeed="8.01" duration="234.80" routeLength="1994.90" waitingTime="0.00" waitingCount="0" stopTime="0.00" timeLoss="35.28" rerouteNo="0" devices="tripinfo_B17" vType="typeCar@B17" speedFactor="1.00" vaporized=""/>
    <tripinfo id="B18" depart="36.40" departLane="sc_0" departPos="5.10" departSpeed="10.00" departDelay="0.40" arrival="270.50" arrivalLane="cn_0" arrivalPos="992.80" arrivalSpeed="7.71" duration="234.10" routeLength="1994.90" waitingTime="0.00" waitingCount="0" stopTime="0.00" timeLoss="34.58" rerouteNo="0" devices="tripinfo_B18" vType="typeCar@B18" speedFactor="1.00" vaporized=""/>
    <tripinfo id="B19" depart="38.10" departLane="sc_0" departPos="5.10" departSpeed="10.00" departDelay="1.10" arrival="271.50" arrivalLane="cn_0" arrivalPos="992.80" arrivalSpeed="7.99" duration="233.40" routeLength="1994.90" waitingTime="0.00" waitingCount="0" stopTime="0.00" timeLoss="33.88" rerouteNo="0" devices="tripinfo_B19" vType="typeCar@B19" speedFactor="1.00" vaporized=""/>
    <tripinfo id="C20" depart="39.80" departLane="sc_0" departPos="5.10" departSpeed="10.00" departDelay="0.80" arrival="272.50" arrivalLane="cn_0" arrivalPos="992.80" arrivalSpeed="8.06" duration="232.70" routeLength="1994.90" waitingTime="0.00" waitingCount="0" stopTime="0.00" timeLoss="33.18" rerouteNo="0" devices="tripinfo_C20" vType="typeCar@C20" speedFactor="1.00" vaporized=""/>
    <tripinfo id="C21" depart="41.50" departLane="sc_0" departPos="5.10" departSpeed="10.00" departDelay="1.50" arrival="273.50" arrivalLane="cn_0" arrivalPos="992.80" arrivalSpeed="8.12" duration="232.00" routeLength="1994.90" waitingTime="0.00" waitingCount="0" stopTime="0.00" timeLoss="32.48" rerouteNo="0" devices="tripinfo_C21" vType="typeCar@C21" speedFactor="1.00" vaporized=""/>
    <tripinfo id="C22" depart="43.20" departLane="sc_0" departPos="5.10" departSpeed="10.00" departDelay="1.20" arrival="274.50" arrivalLane="cn_0" arrivalPos="992.80" arrivalSpeed="7.90" duration="231.30" routeLength="1994.90" waitingTime="0.00" waitingCount="0" stopTime="0.00" timeLoss="31.78" rerouteNo="0" devices="tripinfo_C22" vType="typeCar@C22" speedFactor="1.00" vaporized=""/>
    <tripinfo id="C23" depart="44.90" departLane="sc_0" departPos="5.10" departSpeed="10.00" departDelay="0.90" arrival="275.50" arrivalLane="cn_0" arrivalPos="992.80" arrivalSpeed="8.06" duration="230.60" routeLength="1994.90" waitingTime="0.00" waitingCount="0" stopTime="0.00" timeLoss="31.08" rerouteNo="0" devices="tripinfo_C23" vType="typeCar@C23" speedFactor="1.00" vaporized=""/>
    <tripinfo id="C24" depart="47.00" departLane="sc_0" departPos="5.10" departSpeed="10.00" departDelay="0.00" arrival="276.50" arrivalLane="cn_0" arrivalPos="992.80" arrivalSpeed="7.97" duration="229.50" routeLength="1994.90" waitingTime="0.00" waitingCount="0" stopTime="0.00" timeLoss="29.98" rerouteNo="0" devices="tripinfo_C24" vType="typeCar@C24" speedFactor="1.00" vaporized=""/>
    <tripinfo id="C25" depart="55.00" departLane="sc_0" departPos="5.10" departSpeed="10.00" departDelay="0.00" arrival="277.50" arrivalLane="cn_0" arrivalPos="992.80" arrivalSpeed="7.97" duration="222.50" routeLength="1994.90" waitingTime="0.00" waitingCount="0" stopTime="0.00" timeLoss="22.98" rerouteNo="0" devices="tripinfo_C25" vType="typeCar@C25" speedFactor="1.00" vaporized=""/>
    <tripinfo id="C26" depart="56.70" departLane="sc_0" departPos="5.10" departSpeed="10.00" departDelay="0.70" arrival="278.50" arrivalLane="cn_0" arrivalPos="992.80" arrivalSpeed="8.14" duration="221.80" routeLength="1994.90" waitingTime="0.00" waitingCount="0" stopTime="0.00" timeLoss="22.28" rerouteNo="0" devices="tripinfo_C26" vType="typeCar@C26" speedFactor="1.00" vaporized=""/>
    <tripinfo id="C27" depart="59.00" departLane="sc_0" departPos="5.10" departSpeed="10.00" departDelay="0.00" arrival="279.50" arrivalLane="cn_0" arrivalPos="992.80" arrivalSpeed="8.09" duration="220.50" routeLength="1994.90" waitingTime="0.00" waitingCount="0" stopTime="0.00" timeLoss="20.98" rerouteNo="0" devices="tripinfo_C27" vType="typeCar@C27" speedFactor="1.00" vaporized=""/>
    <tripinfo id="C28" depart="62.00" departLane="sc_0" departPos="5.10" departSpeed="10.00" departDelay="0.00" arrival="280.50" arrivalLane="cn_0" arrivalPos="992.80" arrivalSpeed="8.18" duration="218.50" routeLength="1994.90" waitingTime="0.00" waitingCount="0" stopTime="0.00" timeLoss="18.98" rerouteNo="0" devices="tripinfo_C28" vType="typeCar@C28" speedFactor="1.00" vaporized=""/>
    <tripinfo id="C29" depart="65.00" departLane="sc_0" departPos="5.10" departSpeed="10.00" departDelay="0.00" arrival="281.50" arrivalLane="cn_0" arrivalPos="992.80" arrivalSpeed="8.17" duration="216.50" routeLength="1994.90" waitingTime="0.00" waitingCount="0" stopTime="0.00" timeLoss="16.98" rerouteNo="0" devices="tripinfo_C29" vType="typeCar@C29" speedFactor="1.00" vaporized=""/>
    <tripinfo id="D30" depart="69.00" departLane="sc_0" departPos="5.10" departSpeed="10.00" departDelay="0.00" arrival="282.50" arrivalLane="cn_0" arrivalPos="992.80" arrivalSpeed="8.07" duration="213.50" routeLength="1994.90" waitingTime="0.00" waitingCount="0" stopTime="0.00" timeLoss="13.98" rerouteNo="0" devices="tripinfo_D30" vType="typeCar@D30" speedFactor="1.00" vaporized=""/>
    <tripinfo id="D31" depart="72.00" departLane="sc_0" departPos="5.10" departSpeed="10.00" departDelay="0.00" arrival="283.50" arrivalLane="cn_0" arrivalPos="992.80" arrivalSpeed="8.17" duration="211.50" routeLength="1994.90" waitingTime="0.00" waitingCount="0" stopTime="0.00" timeLoss="11.98" rerouteNo="0" devices="tripinfo_D31" vType="typeCar@D31" speedFactor="1.00" vaporized=""/>
    <tripinfo id="D32" depart="74.00" departLane="sc_0" departPos="5.10" departSpeed="10.00" departDelay="0.00" arrival="284.50" arrivalLane="cn_0" arrivalPos="992.80" arrivalSpeed="7.79" duration="210.50" routeLength="1994.90" waitingTime="0.00" waitingCount="0" stopTime="0.00" timeLoss="10.98" rerouteNo="0" devices="tripinfo_D32" vType="typeCar@D32" speedFactor="1.00" vaporized=""/>
    <tripinfo id="D33" depart="77.00" departLane="sc_0" departPos="5.10" departSpeed="10.00" departDelay="0.00" arrival="285.50" arrivalLane="cn_0" arrivalPos="992.80" arrivalSpeed="7.83" duration="208.50" routeLength="1994.90" waitingTime="0.00" waitingCount="0" stopTime="0.00" timeLoss="8.98" rerouteNo="0" devices="tripinfo_D33" vType="typeCar@D33" speedFactor="1.00" vaporized=""/>
    <tripinfo id="D34" depart="79.00" departLane="sc_0" departPos="5.10" departSpeed="10.00" departDelay="0.00" arrival="286.50" arrivalLane="cn_0" arrivalPos="992.80" arrivalSpeed="8.18" duration="207.50" routeLength="1994.90" waitingTime="0.00" waitingCount="0" stopTime="0.00" timeLoss="7.98" rerouteNo="0" devices="tripinfo_D34" vType="typeCar@D34" speedFactor="1.00" vaporized=""/>
    <tripinfo id="D35" depart="82.00" departLane="sc_0" departPos="5.10" departSpeed="10.00" departDelay="0.00" arrival="287.50" arrivalLane="cn_0" arrivalPos="992.80" arrivalSpeed="7.89" duration="205.50" routeLength="1994.90" waitingTime="0.00" waitingCount="0" stopTime="0.00" timeLoss="5.98" rerouteNo="0" devices="tripinfo_D35" vType="typeCar@D35" speedFactor="1.00" vaporized=""/>
    <tripinfo id="D36" depart="84.00" departLane="sc_0" departPos="5.10" departSpeed="10.00" departDelay="0.00" arrival="288.50" arrivalLane="cn_0" arrivalPos="992.80" arrivalSpeed="7.92" duration="204.50" routeLength="1994.90" waitingTime="0.00" waitingCount="0" stopTime="0.00" timeLoss="4.98" rerouteNo="0" devices="tripinfo_D36" vType="typeCar@D36" speedFactor="1.00" vaporized=""/>
    <tripinfo id="D37" depart="87.00" departLane="sc_0" departPos="5.10" departSpeed="10.00" departDelay="0.00" arrival="289.50" arrivalLane="cn_0" arrivalPos="992.80" arrivalSpeed="7.78" duration="202.50" routeLength="1994.90" waitingTime="0.00" waitingCount="0" stopTime="0.00" timeLoss="2.98" rerouteNo="0" devices="tripinfo_D37" vType="typeCar@D37" speedFactor="1.00" vaporized=""/>
    <tripinfo id="D38" depart="91.00" departLane="sc_0" departPos="5.10" departSpeed="10.00" departDelay="0.00" arrival="290.60" arrivalLane="cn_0" arrivalPos="992.80" arrivalSpeed="10.00" duration="199.60" routeLength="1994.90" waitingTime="0.00" waitingCount="0" stopTime="0.00" timeLoss="0.03" rerouteNo="0" devices="tripinfo_D38" vType="typeCar@D38" speedFactor="1.00" vaporized=""/>
    <tripinfo id="D39" depart="92.70" departLane="sc_0" departPos="5.10" departSpeed="10.00" departDelay="0.70" arrival="292.30" arrivalLane="cn_0" arrivalPos="992.80" arrivalSpeed="10.00" duration="199.60" routeLength="1994.90" waitingTime="0.00" waitingCount="0" stopTime="0.00" timeLoss="0.03" rerouteNo="0" devices="tripinfo_D39" vType="typeCar@D39" speedFactor="1.00" vaporized=""/>
    <tripinfo id="E40" depart="94.40" departLane="sc_0" departPos="5.10" departSpeed="10.00" departDelay="1.40" arrival="294.00" arrivalLane="cn_0" arrivalPos="992.80" arrivalSpeed="10.00" duration="199.60" routeLength="1994.90" waitingTime="0.00" waitingCount="0" stopTime="0.00" timeLoss="0.03" rerouteNo="0" devices="tripinfo_E40" vType="typeCar@E40" speedFactor="1.00" vaporized=""/>
    <tripinfo id="E41" depart="96.10" departLane="sc_0" departPos="5.10" departSpeed="10.00" departDelay="1.10" arrival="295.70" arrivalLane="cn_0" arrivalPos="992.80" arrivalSpeed="10.00" duration="199.60" routeLength="1994.90" waitingTime="0.00" waitingCount="0" stopTime="0.00" timeLoss="0.03" rerouteNo="0" devices="tripinfo_E41" vType="typeCar@E41" speedFactor="1.00" vaporized=""/>
    <tripinfo id="E42" depart="98.00" departLane="sc_0" departPos="5.10" departSpeed="10.00" departDelay="0.00" arrival="297.60" arrivalLane="cn_0" arrivalPos="992.80" arrivalSpeed="10.00" duration="199.60" routeLength="1994.90" waitingTime="0.00" waitingCount="0" stopTime="0.00" timeLoss="0.03" rerouteNo="0" devices="tripinfo_E42" vType="typeCar@E42" speedFactor="1.00" vaporized=""/>
</tripinfos>
