<?xml version="1.0" encoding="UTF-8"?>

<!-- generated on 2022-07-30 15:08:59 by Eclipse SUMO GUI Version 1.13.0
<configuration xmlns:xsi="http://www.w3.org/2001/XMLSchema-instance" xsi:noNamespaceSchemaLocation="http://sumo.dlr.de/xsd/sumoConfiguration.xsd">

    <input>
        <net-file value="net.net.xml"/>
        <route-files value="routes.rou.xml"/>
    </input>

    <output>
        <tripinfo-output value="raw_data/(2,1,0)tripinfo.xml"/>
    </output>

    <time>
        <begin value="0"/>
        <step-length value="0.1"/>
    </time>

    <processing>
        <collision.action value="warn"/>
        <collision.stoptime value="1"/>
        <collision.mingap-factor value="1"/>
    </processing>

    <report>
        <verbose value="false"/>
        <log value="log.txt"/>
        <duration-log.statistics value="true"/>
        <no-step-log value="true"/>
    </report>

    <traci_server>
        <remote-port value="10580"/>
    </traci_server>

    <gui_only>
        <tracker-interval value="0.1"/>
    </gui_only>

</configuration>
-->

<tripinfos xmlns:xsi="http://www.w3.org/2001/XMLSchema-instance" xsi:noNamespaceSchemaLocation="http://sumo.dlr.de/xsd/tripinfo_file.xsd">
    <tripinfo id="A0" depart="0.00" departLane="sc_0" departPos="5.10" departSpeed="10.00" departDelay="0.00" arrival="252.50" arrivalLane="cn_0" arrivalPos="992.80" arrivalSpeed="8.13" duration="252.50" routeLength="1994.90" waitingTime="0.00" waitingCount="0" stopTime="0.00" timeLoss="52.98" rerouteNo="0" devices="tripinfo_A0" vType="typeCar@A0" speedFactor="1.00" vaporized=""/>
    <tripinfo id="A1" depart="1.70" departLane="sc_0" departPos="5.10" departSpeed="10.00" departDelay="0.70" arrival="253.50" arrivalLane="cn_0" arrivalPos="992.80" arrivalSpeed="8.15" duration="251.80" routeLength="1994.90" waitingTime="0.00" waitingCount="0" stopTime="0.00" timeLoss="52.28" rerouteNo="0" devices="tripinfo_A1" vType="typeCar@A1" speedFactor="1.00" vaporized=""/>
    <tripinfo id="A2" depart="3.40" departLane="sc_0" departPos="5.10" departSpeed="10.00" departDelay="0.40" arrival="254.50" arrivalLane="cn_0" arrivalPos="992.80" arrivalSpeed="8.14" duration="251.10" routeLength="1994.90" waitingTime="0.00" waitingCount="0" stopTime="0.00" timeLoss="51.58" rerouteNo="0" devices="tripinfo_A2" vType="typeCar@A2" speedFactor="1.00" vaporized=""/>
    <tripinfo id="A3" depart="6.50" departLane="sc_0" departPos="5.10" departSpeed="10.00" departDelay="2.50" arrival="255.50" arrivalLane="cn_0" arrivalPos="992.80" arrivalSpeed="8.12" duration="249.00" routeLength="1994.90" waitingTime="0.00" waitingCount="0" stopTime="0.00" timeLoss="49.48" rerouteNo="0" devices="tripinfo_A3" vType="typeCar@A3" speedFactor="1.00" vaporized=""/>
    <tripinfo id="A4" depart="6.00" departLane="wc_0" departPos="5.10" departSpeed="10.00" departDelay="0.00" arrival="257.50" arrivalLane="ce_0" arrivalPos="992.80" arrivalSpeed="7.76" duration="251.50" routeLength="1994.90" waitingTime="0.00" waitingCount="0" stopTime="0.00" timeLoss="51.98" rerouteNo="0" devices="tripinfo_A4" vType="typeCar@A4" speedFactor="1.00" vaporized=""/>
    <tripinfo id="A5" depart="9.40" departLane="sc_0" departPos="5.10" departSpeed="10.00" departDelay="3.40" arrival="259.50" arrivalLane="cn_0" arrivalPos="992.80" arrivalSpeed="7.87" duration="250.10" routeLength="1994.90" waitingTime="0.00" waitingCount="0" stopTime="0.00" timeLoss="50.58" rerouteNo="0" devices="tripinfo_A5" vType="typeCar@A5" speedFactor="1.00" vaporized=""/>
    <tripinfo id="A6" depart="11.30" departLane="sc_0" departPos="5.10" departSpeed="10.00" departDelay="2.30" arrival="260.50" arrivalLane="cn_0" arrivalPos="992.80" arrivalSpeed="7.74" duration="249.20" routeLength="1994.90" waitingTime="0.00" waitingCount="0" stopTime="0.00" timeLoss="49.68" rerouteNo="0" devices="tripinfo_A6" vType="typeCar@A6" speedFactor="1.00" vaporized=""/>
    <tripinfo id="A7" depart="13.00" departLane="sc_0" departPos="5.10" departSpeed="10.00" departDelay="2.00" arrival="261.50" arrivalLane="cn_0" arrivalPos="992.80" arrivalSpeed="8.06" duration="248.50" routeLength="1994.90" waitingTime="0.00" waitingCount="0" stopTime="0.00" timeLoss="48.98" rerouteNo="0" devices="tripinfo_A7" vType="typeCar@A7" speedFactor="1.00" vaporized=""/>
    <tripinfo id="A8" depart="15.60" departLane="sc_0" departPos="5.10" departSpeed="10.00" departDelay="3.60" arrival="262.50" arrivalLane="cn_0" arrivalPos="992.80" arrivalSpeed="8.11" duration="246.90" routeLength="1994.90" waitingTime="0.00" waitingCount="0" stopTime="0.00" timeLoss="47.38" rerouteNo="0" devices="tripinfo_A8" vType="typeCar@A8" speedFactor="1.00" vaporized=""/>
    <tripinfo id="A9" depart="13.00" departLane="wc_0" departPos="5.10" departSpeed="10.00" departDelay="0.00" arrival="264.50" arrivalLane="ce_0" arrivalPos="992.80" arrivalSpeed="8.10" duration="251.50" routeLength="1994.90" waitingTime="0.00" waitingCount="0" stopTime="0.00" timeLoss="51.98" rerouteNo="0" devices="tripinfo_A9" vType="typeCar@A9" speedFactor="1.00" vaporized=""/>
    <tripinfo id="B10" depart="17.30" departLane="sc_0" departPos="5.10" departSpeed="10.00" departDelay="4.30" arrival="266.50" arrivalLane="cn_0" arrivalPos="992.80" arrivalSpeed="8.12" duration="249.20" routeLength="1994.90" waitingTime="0.00" waitingCount="0" stopTime="0.00" timeLoss="49.68" rerouteNo="0" devices="tripinfo_B10" vType="typeCar@B10" speedFactor="1.00" vaporized=""/>
    <tripinfo id="B11" depart="20.00" departLane="sc_0" departPos="5.10" departSpeed="10.00" departDelay="0.00" arrival="267.50" arrivalLane="cn_0" arrivalPos="992.80" arrivalSpeed="8.20" duration="247.50" routeLength="1994.90" waitingTime="0.00" waitingCount="0" stopTime="0.00" timeLoss="47.98" rerouteNo="0" devices="tripinfo_B11" vType="typeCar@B11" speedFactor="1.00" vaporized=""/>
    <tripinfo id="B12" depart="21.70" departLane="sc_0" departPos="5.10" departSpeed="10.00" departDelay="0.70" arrival="268.50" arrivalLane="cn_0" arrivalPos="992.80" arrivalSpeed="8.15" duration="246.80" routeLength="1994.90" waitingTime="0.00" waitingCount="0" stopTime="0.00" timeLoss="47.28" rerouteNo="0" devices="tripinfo_B12" vType="typeCar@B12" speedFactor="1.00" vaporized=""/>
    <tripinfo id="B13" depart="22.00" departLane="wc_0" departPos="5.10" departSpeed="10.00" departDelay="0.00" arrival="270.50" arrivalLane="ce_0" arrivalPos="992.80" arrivalSpeed="8.10" duration="248.50" routeLength="1994.90" waitingTime="0.00" waitingCount="0" stopTime="0.00" timeLoss="48.98" rerouteNo="0" devices="tripinfo_B13" vType="typeCar@B13" speedFactor="1.00" vaporized=""/>
    <tripinfo id="B14" depart="23.60" departLane="sc_0" departPos="5.10" departSpeed="10.00" departDelay="1.60" arrival="272.50" arrivalLane="cn_0" arrivalPos="992.80" arrivalSpeed="8.16" duration="248.90" routeLength="1994.90" waitingTime="0.00" waitingCount="0" stopTime="0.00" timeLoss="49.38" rerouteNo="0" devices="tripinfo_B14" vType="typeCar@B14" speedFactor="1.00" vaporized=""/>
    <tripinfo id="B15" depart="23.70" departLane="wc_0" departPos="5.10" departSpeed="10.00" departDelay="0.70" arrival="274.50" arrivalLane="ce_0" arrivalPos="992.80" arrivalSpeed="8.09" duration="250.80" routeLength="1994.90" waitingTime="0.00" waitingCount="0" stopTime="0.00" timeLoss="51.28" rerouteNo="0" devices="tripinfo_B15" vType="typeCar@B15" speedFactor="1.00" vaporized=""/>
    <tripinfo id="B16" depart="25.30" departLane="sc_0" departPos="5.10" departSpeed="10.00" departDelay="2.30" arrival="276.50" arrivalLane="cn_0" arrivalPos="992.80" arrivalSpeed="7.85" duration="251.20" routeLength="1994.90" waitingTime="0.00" waitingCount="0" stopTime="0.00" timeLoss="51.68" rerouteNo="0" devices="tripinfo_B16" vType="typeCar@B16" speedFactor="1.00" vaporized=""/>
    <tripinfo id="B17" depart="27.00" departLane="sc_0" departPos="5.10" departSpeed="10.00" departDelay="3.00" arrival="277.50" arrivalLane="cn_0" arrivalPos="992.80" arrivalSpeed="8.16" duration="250.50" routeLength="1994.90" waitingTime="0.00" waitingCount="0" stopTime="0.00" timeLoss="50.98" rerouteNo="0" devices="tripinfo_B17" vType="typeCar@B17" speedFactor="1.00" vaporized=""/>
    <tripinfo id="B18" depart="29.90" departLane="sc_0" departPos="5.10" departSpeed="10.00" departDelay="4.90" arrival="278.50" arrivalLane="cn_0" arrivalPos="992.80" arrivalSpeed="8.08" duration="248.60" routeLength="1994.90" waitingTime="0.00" waitingCount="0" stopTime="0.00" timeLoss="49.08" rerouteNo="0" devices="tripinfo_B18" vType="typeCar@B18" speedFactor="1.00" vaporized=""/>
    <tripinfo id="B19" depart="28.00" departLane="wc_0" departPos="5.10" departSpeed="10.00" departDelay="0.00" arrival="280.50" arrivalLane="ce_0" arrivalPos="992.80" arrivalSpeed="7.94" duration="252.50" routeLength="1994.90" waitingTime="0.00" waitingCount="0" stopTime="0.00" timeLoss="52.98" rerouteNo="0" devices="tripinfo_B19" vType="typeCar@B19" speedFactor="1.00" vaporized=""/>
    <tripinfo id="C20" depart="29.70" departLane="wc_0" departPos="5.10" departSpeed="10.00" departDelay="0.70" arrival="281.50" arrivalLane="ce_0" arrivalPos="992.80" arrivalSpeed="8.20" duration="251.80" routeLength="1994.90" waitingTime="0.00" waitingCount="0" stopTime="0.00" timeLoss="52.28" rerouteNo="0" devices="tripinfo_C20" vType="typeCar@C20" speedFactor="1.00" vaporized=""/>
    <tripinfo id="C21" depart="32.70" departLane="sc_0" departPos="5.10" departSpeed="10.00" departDelay="3.70" arrival="283.50" arrivalLane="cn_0" arrivalPos="992.80" arrivalSpeed="7.93" duration="250.80" routeLength="1994.90" waitingTime="0.00" waitingCount="0" stopTime="0.00" timeLoss="51.28" rerouteNo="0" devices="tripinfo_C21" vType="typeCar@C21" speedFactor="1.00" vaporized=""/>
    <tripinfo id="C22" depart="34.40" departLane="sc_0" departPos="5.10" departSpeed="10.00" departDelay="1.40" arrival="284.50" arrivalLane="cn_0" arrivalPos="992.80" arrivalSpeed="8.15" duration="250.10" routeLength="1994.90" waitingTime="0.00" waitingCount="0" stopTime="0.00" timeLoss="50.58" rerouteNo="0" devices="tripinfo_C22" vType="typeCar@C22" speedFactor="1.00" vaporized=""/>
    <tripinfo id="C23" depart="36.10" departLane="sc_0" departPos="5.10" departSpeed="10.00" departDelay="2.10" arrival="285.50" arrivalLane="cn_0" arrivalPos="992.80" arrivalSpeed="8.10" duration="249.40" routeLength="1994.90" waitingTime="0.00" waitingCount="0" stopTime="0.00" timeLoss="49.88" rerouteNo="0" devices="tripinfo_C23" vType="typeCar@C23" speedFactor="1.00" vaporized=""/>
    <tripinfo id="C24" depart="39.20" departLane="sc_0" departPos="5.10" departSpeed="10.00" departDelay="3.20" arrival="286.50" arrivalLane="cn_0" arrivalPos="992.80" arrivalSpeed="7.84" duration="247.30" routeLength="1994.90" waitingTime="0.00" waitingCount="0" stopTime="0.00" timeLoss="47.78" rerouteNo="0" devices="tripinfo_C24" vType="typeCar@C24" speedFactor="1.00" vaporized=""/>
    <tripinfo id="C25" depart="41.30" departLane="sc_0" departPos="5.10" departSpeed="10.00" departDelay="4.30" arrival="287.50" arrivalLane="cn_0" arrivalPos="992.80" arrivalSpeed="8.05" duration="246.20" routeLength="1994.90" waitingTime="0.00" waitingCount="0" stopTime="0.00" timeLoss="46.68" rerouteNo="0" devices="tripinfo_C25" vType="typeCar@C25" speedFactor="1.00" vaporized=""/>
    <tripinfo id="C26" depart="43.00" departLane="sc_0" departPos="5.10" departSpeed="10.00" departDelay="4.00" arrival="288.50" arrivalLane="cn_0" arrivalPos="992.80" arrivalSpeed="8.09" duration="245.50" routeLength="1994.90" waitingTime="0.00" waitingCount="0" stopTime="0.00" timeLoss="45.98" rerouteNo="0" devices="tripinfo_C26" vType="typeCar@C26" speedFactor="1.00" vaporized=""/>
    <tripinfo id="C27" depart="44.70" departLane="sc_0" departPos="5.10" departSpeed="10.00" departDelay="4.70" arrival="289.50" arrivalLane="cn_0" arrivalPos="992.80" arrivalSpeed="7.75" duration="244.80" routeLength="1994.90" waitingTime="0.00" waitingCount="0" stopTime="0.00" timeLoss="45.28" rerouteNo="0" devices="tripinfo_C27" vType="typeCar@C27" speedFactor="1.00" vaporized=""/>
    <tripinfo id="C28" depart="46.40" departLane="sc_0" departPos="5.10" departSpeed="10.00" departDelay="4.40" arrival="290.50" arrivalLane="cn_0" arrivalPos="992.80" arrivalSpeed="8.13" duration="244.10" routeLength="1994.90" waitingTime="0.00" waitingCount="0" stopTime="0.00" timeLoss="44.58" rerouteNo="0" devices="tripinfo_C28" vType="typeCar@C28" speedFactor="1.00" vaporized=""/>
    <tripinfo id="C29" depart="44.00" departLane="wc_0" departPos="5.10" departSpeed="10.00" departDelay="0.00" arrival="292.50" arrivalLane="ce_0" arrivalPos="992.80" arrivalSpeed="8.09" duration="248.50" routeLength="1994.90" waitingTime="0.00" waitingCount="0" stopTime="0.00" timeLoss="48.98" rerouteNo="0" devices="tripinfo_C29" vType="typeCar@C29" speedFactor="1.00" vaporized=""/>
    <tripinfo id="D30" depart="48.10" departLane="sc_0" departPos="5.10" departSpeed="10.00" departDelay="4.10" arrival="294.50" arrivalLane="cn_0" arrivalPos="992.80" arrivalSpeed="8.17" duration="246.40" routeLength="1994.90" waitingTime="0.00" waitingCount="0" stopTime="0.00" timeLoss="46.88" rerouteNo="0" devices="tripinfo_D30" vType="typeCar@D30" speedFactor="1.00" vaporized=""/>
    <tripinfo id="D31" depart="45.70" departLane="wc_0" departPos="5.10" departSpeed="10.00" departDelay="0.70" arrival="296.50" arrivalLane="ce_0" arrivalPos="992.80" arrivalSpeed="8.12" duration="250.80" routeLength="1994.90" waitingTime="0.00" waitingCount="0" stopTime="0.00" timeLoss="51.28" rerouteNo="0" devices="tripinfo_D31" vType="typeCar@D31" speedFactor="1.00" vaporized=""/>
    <tripinfo id="D32" depart="47.40" departLane="wc_0" departPos="5.10" departSpeed="10.00" departDelay="0.40" arrival="297.50" arrivalLane="ce_0" arrivalPos="992.80" arrivalSpeed="8.01" duration="250.10" routeLength="1994.90" waitingTime="0.00" waitingCount="0" stopTime="0.00" timeLoss="50.58" rerouteNo="0" devices="tripinfo_D32" vType="typeCar@D32" speedFactor="1.00" vaporized=""/>
    <tripinfo id="D33" depart="49.80" departLane="sc_0" departPos="5.10" departSpeed="10.00" departDelay="2.80" arrival="299.50" arrivalLane="cn_0" arrivalPos="992.80" arrivalSpeed="7.77" duration="249.70" routeLength="1994.90" waitingTime="0.00" waitingCount="0" stopTime="0.00" timeLoss="50.18" rerouteNo="0" devices="tripinfo_D33" vType="typeCar@D33" speedFactor="1.00" vaporized=""/>
    <tripinfo id="D34" depart="50.00" departLane="wc_0" departPos="5.10" departSpeed="10.00" departDelay="0.00" arrival="301.50" arrivalLane="ce_0" arrivalPos="992.80" arrivalSpeed="8.13" duration="251.50" routeLength="1994.90" waitingTime="0.00" waitingCount="0" stopTime="0.00" timeLoss="51.98" rerouteNo="0" devices="tripinfo_D34" vType="typeCar@D34" speedFactor="1.00" vaporized=""/>
    <tripinfo id="D35" depart="53.00" departLane="wc_0" departPos="5.10" departSpeed="10.00" departDelay="0.00" arrival="302.50" arrivalLane="ce_0" arrivalPos="992.80" arrivalSpeed="8.09" duration="249.50" routeLength="1994.90" waitingTime="0.00" waitingCount="0" stopTime="0.00" timeLoss="49.98" rerouteNo="0" devices="tripinfo_D35" vType="typeCar@D35" speedFactor="1.00" vaporized=""/>
    <tripinfo id="D36" depart="55.00" departLane="sc_0" departPos="5.10" departSpeed="10.00" departDelay="0.00" arrival="304.50" arrivalLane="cn_0" arrivalPos="992.80" arrivalSpeed="8.06" duration="249.50" routeLength="1994.90" waitingTime="0.00" waitingCount="0" stopTime="0.00" timeLoss="49.98" rerouteNo="0" devices="tripinfo_D36" vType="typeCar@D36" speedFactor="1.00" vaporized=""/>
    <tripinfo id="D37" depart="56.70" departLane="sc_0" departPos="5.10" departSpeed="10.00" departDelay="0.70" arrival="305.50" arrivalLane="cn_0" arrivalPos="992.80" arrivalSpeed="7.92" duration="248.80" routeLength="1994.90" waitingTime="0.00" waitingCount="0" stopTime="0.00" timeLoss="49.28" rerouteNo="0" devices="tripinfo_D37" vType="typeCar@D37" speedFactor="1.00" vaporized=""/>
    <tripinfo id="D38" depart="59.00" departLane="sc_0" departPos="5.10" departSpeed="10.00" departDelay="0.00" arrival="306.50" arrivalLane="cn_0" arrivalPos="992.80" arrivalSpeed="8.12" duration="247.50" routeLength="1994.90" waitingTime="0.00" waitingCount="0" stopTime="0.00" timeLoss="47.98" rerouteNo="0" devices="tripinfo_D38" vType="typeCar@D38" speedFactor="1.00" vaporized=""/>
    <tripinfo id="D39" depart="62.00" departLane="wc_0" departPos="5.10" departSpeed="10.00" departDelay="0.00" arrival="308.50" arrivalLane="ce_0" arrivalPos="992.80" arrivalSpeed="8.15" duration="246.50" routeLength="1994.90" waitingTime="0.00" waitingCount="0" stopTime="0.00" timeLoss="46.98" rerouteNo="0" devices="tripinfo_D39" vType="typeCar@D39" speedFactor="1.00" vaporized=""/>
    <tripinfo id="E40" depart="62.00" departLane="sc_0" departPos="5.10" departSpeed="10.00" departDelay="0.00" arrival="310.50" arrivalLane="cn_0" arrivalPos="992.80" arrivalSpeed="8.18" duration="248.50" routeLength="1994.90" waitingTime="0.00" waitingCount="0" stopTime="0.00" timeLoss="48.98" rerouteNo="0" devices="tripinfo_E40" vType="typeCar@E40" speedFactor="1.00" vaporized=""/>
    <tripinfo id="E41" depart="63.70" departLane="wc_0" departPos="5.10" departSpeed="10.00" departDelay="0.70" arrival="312.50" arrivalLane="ce_0" arrivalPos="992.80" arrivalSpeed="7.74" duration="248.80" routeLength="1994.90" waitingTime="0.00" waitingCount="0" stopTime="0.00" timeLoss="49.28" rerouteNo="0" devices="tripinfo_E41" vType="typeCar@E41" speedFactor="1.00" vaporized=""/>
    <tripinfo id="E42" depart="65.00" departLane="sc_0" departPos="5.10" departSpeed="10.00" departDelay="0.00" arrival="314.50" arrivalLane="cn_0" arrivalPos="992.80" arrivalSpeed="8.05" duration="249.50" routeLength="1994.90" waitingTime="0.00" waitingCount="0" stopTime="0.00" timeLoss="49.98" rerouteNo="0" devices="tripinfo_E42" vType="typeCar@E42" speedFactor="1.00" vaporized=""/>
    <tripinfo id="E43" depart="67.00" departLane="wc_0" departPos="5.10" departSpeed="10.00" departDelay="0.00" arrival="316.50" arrivalLane="ce_0" arrivalPos="992.80" arrivalSpeed="8.10" duration="249.50" routeLength="1994.90" waitingTime="0.00" waitingCount="0" stopTime="0.00" timeLoss="49.98" rerouteNo="0" devices="tripinfo_E43" vType="typeCar@E43" speedFactor="1.00" vaporized=""/>
    <tripinfo id="E44" depart="68.70" departLane="wc_0" departPos="5.10" departSpeed="10.00" departDelay="0.70" arrival="317.50" arrivalLane="ce_0" arrivalPos="992.80" arrivalSpeed="7.80" duration="248.80" routeLength="1994.90" waitingTime="0.00" waitingCount="0" stopTime="0.00" timeLoss="49.28" rerouteNo="0" devices="tripinfo_E44" vType="typeCar@E44" speedFactor="1.00" vaporized=""/>
    <tripinfo id="E45" depart="69.00" departLane="sc_0" departPos="5.10" departSpeed="10.00" departDelay="0.00" arrival="319.50" arrivalLane="cn_0" arrivalPos="992.80" arrivalSpeed="7.83" duration="250.50" routeLength="1994.90" waitingTime="0.00" waitingCount="0" stopTime="0.00" timeLoss="50.98" rerouteNo="0" devices="tripinfo_E45" vType="typeCar@E45" speedFactor="1.00" vaporized=""/>
    <tripinfo id="E46" depart="72.00" departLane="sc_0" departPos="5.10" departSpeed="10.00" departDelay="0.00" arrival="320.50" arrivalLane="cn_0" arrivalPos="992.80" arrivalSpeed="8.19" duration="248.50" routeLength="1994.90" waitingTime="0.00" waitingCount="0" stopTime="0.00" timeLoss="48.98" rerouteNo="0" devices="tripinfo_E46" vType="typeCar@E46" speedFactor="1.00" vaporized=""/>
    <tripinfo id="E47" depart="74.00" departLane="sc_0" departPos="5.10" departSpeed="10.00" departDelay="0.00" arrival="321.50" arrivalLane="cn_0" arrivalPos="992.80" arrivalSpeed="8.17" duration="247.50" routeLength="1994.90" waitingTime="0.00" waitingCount="0" stopTime="0.00" timeLoss="47.98" rerouteNo="0" devices="tripinfo_E47" vType="typeCar@E47" speedFactor="1.00" vaporized=""/>
    <tripinfo id="E48" depart="77.00" departLane="wc_0" departPos="5.10" departSpeed="10.00" departDelay="0.00" arrival="323.50" arrivalLane="ce_0" arrivalPos="992.80" arrivalSpeed="8.17" duration="246.50" routeLength="1994.90" waitingTime="0.00" waitingCount="0" stopTime="0.00" timeLoss="46.98" rerouteNo="0" devices="tripinfo_E48" vType="typeCar@E48" speedFactor="1.00" vaporized=""/>
    <tripinfo id="E49" depart="77.00" departLane="sc_0" departPos="5.10" departSpeed="10.00" departDelay="0.00" arrival="325.50" arrivalLane="cn_0" arrivalPos="992.80" arrivalSpeed="8.04" duration="248.50" routeLength="1994.90" waitingTime="0.00" waitingCount="0" stopTime="0.00" timeLoss="48.98" rerouteNo="0" devices="tripinfo_E49" vType="typeCar@E49" speedFactor="1.00" vaporized=""/>
    <tripinfo id="F50" depart="79.00" departLane="sc_0" departPos="5.10" departSpeed="10.00" departDelay="0.00" arrival="326.50" arrivalLane="cn_0" arrivalPos="992.80" arrivalSpeed="7.82" duration="247.50" routeLength="1994.90" waitingTime="0.00" waitingCount="0" stopTime="0.00" timeLoss="47.98" rerouteNo="0" devices="tripinfo_F50" vType="typeCar@F50" speedFactor="1.00" vaporized=""/>
    <tripinfo id="F51" depart="80.00" departLane="wc_0" departPos="5.10" departSpeed="10.00" departDelay="0.00" arrival="328.50" arrivalLane="ce_0" arrivalPos="992.80" arrivalSpeed="8.11" duration="248.50" routeLength="1994.90" waitingTime="0.00" waitingCount="0" stopTime="0.00" timeLoss="48.98" rerouteNo="0" devices="tripinfo_F51" vType="typeCar@F51" speedFactor="1.00" vaporized=""/>
    <tripinfo id="F52" depart="82.00" departLane="sc_0" departPos="5.10" departSpeed="10.00" departDelay="0.00" arrival="330.50" arrivalLane="cn_0" arrivalPos="992.80" arrivalSpeed="7.94" duration="248.50" routeLength="1994.90" waitingTime="0.00" waitingCount="0" stopTime="0.00" timeLoss="48.98" rerouteNo="0" devices="tripinfo_F52" vType="typeCar@F52" speedFactor="1.00" vaporized=""/>
    <tripinfo id="F53" depart="84.00" departLane="sc_0" departPos="5.10" departSpeed="10.00" departDelay="0.00" arrival="331.50" arrivalLane="cn_0" arrivalPos="992.80" arrivalSpeed="8.10" duration="247.50" routeLength="1994.90" waitingTime="0.00" waitingCount="0" stopTime="0.00" timeLoss="47.98" rerouteNo="0" devices="tripinfo_F53" vType="typeCar@F53" speedFactor="1.00" vaporized=""/>
    <tripinfo id="F54" depart="87.00" departLane="sc_0" departPos="5.10" departSpeed="10.00" departDelay="0.00" arrival="332.50" arrivalLane="cn_0" arrivalPos="992.80" arrivalSpeed="8.08" duration="245.50" routeLength="1994.90" waitingTime="0.00" waitingCount="0" stopTime="0.00" timeLoss="45.98" rerouteNo="0" devices="tripinfo_F54" vType="typeCar@F54" speedFactor="1.00" vaporized=""/>
    <tripinfo id="F55" depart="88.00" departLane="wc_0" departPos="5.10" departSpeed="10.00" departDelay="0.00" arrival="334.50" arrivalLane="ce_0" arrivalPos="992.80" arrivalSpeed="8.18" duration="246.50" routeLength="1994.90" waitingTime="0.00" waitingCount="0" stopTime="0.00" timeLoss="46.98" rerouteNo="0" devices="tripinfo_F55" vType="typeCar@F55" speedFactor="1.00" vaporized=""/>
    <tripinfo id="F56" depart="91.00" departLane="sc_0" departPos="5.10" departSpeed="10.00" departDelay="0.00" arrival="336.50" arrivalLane="cn_0" arrivalPos="992.80" arrivalSpeed="8.20" duration="245.50" routeLength="1994.90" waitingTime="0.00" waitingCount="0" stopTime="0.00" timeLoss="45.98" rerouteNo="0" devices="tripinfo_F56" vType="typeCar@F56" speedFactor="1.00" vaporized=""/>
    <tripinfo id="F57" depart="92.70" departLane="sc_0" departPos="5.10" departSpeed="10.00" departDelay="0.70" arrival="337.50" arrivalLane="cn_0" arrivalPos="992.80" arrivalSpeed="8.03" duration="244.80" routeLength="1994.90" waitingTime="0.00" waitingCount="0" stopTime="0.00" timeLoss="45.28" rerouteNo="0" devices="tripinfo_F57" vType="typeCar@F57" speedFactor="1.00" vaporized=""/>
    <tripinfo id="F58" depart="94.40" departLane="sc_0" departPos="5.10" departSpeed="10.00" departDelay="1.40" arrival="338.50" arrivalLane="cn_0" arrivalPos="992.80" arrivalSpeed="7.82" duration="244.10" routeLength="1994.90" waitingTime="0.00" waitingCount="0" stopTime="0.00" timeLoss="44.58" rerouteNo="0" devices="tripinfo_F58" vType="typeCar@F58" speedFactor="1.00" vaporized=""/>
    <tripinfo id="F59" depart="94.00" departLane="wc_0" departPos="5.10" departSpeed="10.00" departDelay="0.00" arrival="340.50" arrivalLane="ce_0" arrivalPos="992.80" arrivalSpeed="8.20" duration="246.50" routeLength="1994.90" waitingTime="0.00" waitingCount="0" stopTime="0.00" timeLoss="46.98" rerouteNo="0" devices="tripinfo_F59" vType="typeCar@F59" speedFactor="1.00" vaporized=""/>
    <tripinfo id="G60" depart="96.10" departLane="sc_0" departPos="5.10" departSpeed="10.00" departDelay="1.10" arrival="342.50" arrivalLane="cn_0" arrivalPos="992.80" arrivalSpeed="8.08" duration="246.40" routeLength="1994.90" waitingTime="0.00" waitingCount="0" stopTime="0.00" timeLoss="46.88" rerouteNo="0" devices="tripinfo_G60" vType="typeCar@G60" speedFactor="1.00" vaporized=""/>
    <tripinfo id="G61" depart="98.00" departLane="sc_0" departPos="5.10" departSpeed="10.00" departDelay="0.00" arrival="343.50" arrivalLane="cn_0" arrivalPos="992.80" arrivalSpeed="8.15" duration="245.50" routeLength="1994.90" waitingTime="0.00" waitingCount="0" stopTime="0.00" timeLoss="45.98" rerouteNo="0" devices="tripinfo_G61" vType="typeCar@G61" speedFactor="1.00" vaporized=""/>
</tripinfos>
