<?xml version="1.0" encoding="UTF-8"?>

<!-- generated on 2022-07-30 15:13:33 by Eclipse SUMO GUI Version 1.13.0
<configuration xmlns:xsi="http://www.w3.org/2001/XMLSchema-instance" xsi:noNamespaceSchemaLocation="http://sumo.dlr.de/xsd/sumoConfiguration.xsd">

    <input>
        <net-file value="net.net.xml"/>
        <route-files value="routes.rou.xml"/>
    </input>

    <output>
        <tripinfo-output value="raw_data/(2,3,0)tripinfo.xml"/>
    </output>

    <time>
        <begin value="0"/>
        <step-length value="0.1"/>
    </time>

    <processing>
        <collision.action value="warn"/>
        <collision.stoptime value="1"/>
        <collision.mingap-factor value="1"/>
    </processing>

    <report>
        <verbose value="false"/>
        <log value="log.txt"/>
        <duration-log.statistics value="true"/>
        <no-step-log value="true"/>
    </report>

    <traci_server>
        <remote-port value="10844"/>
    </traci_server>

    <gui_only>
        <tracker-interval value="0.1"/>
    </gui_only>

</configuration>
-->

<tripinfos xmlns:xsi="http://www.w3.org/2001/XMLSchema-instance" xsi:noNamespaceSchemaLocation="http://sumo.dlr.de/xsd/tripinfo_file.xsd">
    <tripinfo id="A0" depart="0.00" departLane="sc_0" departPos="5.10" departSpeed="10.00" departDelay="0.00" arrival="252.50" arrivalLane="cn_0" arrivalPos="992.80" arrivalSpeed="8.13" duration="252.50" routeLength="1994.90" waitingTime="0.00" waitingCount="0" stopTime="0.00" timeLoss="52.98" rerouteNo="0" devices="tripinfo_A0" vType="typeCar@A0" speedFactor="1.00" vaporized=""/>
    <tripinfo id="A1" depart="1.00" departLane="wc_0" departPos="5.10" departSpeed="10.00" departDelay="0.00" arrival="254.50" arrivalLane="ce_0" arrivalPos="992.80" arrivalSpeed="8.04" duration="253.50" routeLength="1994.90" waitingTime="0.00" waitingCount="0" stopTime="0.00" timeLoss="53.98" rerouteNo="0" devices="tripinfo_A1" vType="typeCar@A1" speedFactor="1.00" vaporized=""/>
    <tripinfo id="A2" depart="1.70" departLane="sc_0" departPos="5.10" departSpeed="10.00" departDelay="0.70" arrival="256.50" arrivalLane="cn_0" arrivalPos="992.80" arrivalSpeed="8.15" duration="254.80" routeLength="1994.90" waitingTime="0.00" waitingCount="0" stopTime="0.00" timeLoss="55.28" rerouteNo="0" devices="tripinfo_A2" vType="typeCar@A2" speedFactor="1.00" vaporized=""/>
    <tripinfo id="A3" depart="3.40" departLane="sc_0" departPos="5.10" departSpeed="10.00" departDelay="0.40" arrival="257.50" arrivalLane="cn_0" arrivalPos="992.80" arrivalSpeed="8.03" duration="254.10" routeLength="1994.90" waitingTime="0.00" waitingCount="0" stopTime="0.00" timeLoss="54.58" rerouteNo="0" devices="tripinfo_A3" vType="typeCar@A3" speedFactor="1.00" vaporized=""/>
    <tripinfo id="A4" depart="4.00" departLane="wc_0" departPos="5.10" departSpeed="10.00" departDelay="0.00" arrival="259.50" arrivalLane="ce_0" arrivalPos="992.80" arrivalSpeed="8.18" duration="255.50" routeLength="1994.90" waitingTime="0.00" waitingCount="0" stopTime="0.00" timeLoss="55.98" rerouteNo="0" devices="tripinfo_A4" vType="typeCar@A4" speedFactor="1.00" vaporized=""/>
    <tripinfo id="A5" depart="6.50" departLane="sc_0" departPos="5.10" departSpeed="10.00" departDelay="2.50" arrival="261.50" arrivalLane="cn_0" arrivalPos="992.80" arrivalSpeed="7.91" duration="255.00" routeLength="1994.90" waitingTime="0.00" waitingCount="0" stopTime="0.00" timeLoss="55.48" rerouteNo="0" devices="tripinfo_A5" vType="typeCar@A5" speedFactor="1.00" vaporized=""/>
    <tripinfo id="A6" depart="5.70" departLane="wc_0" departPos="5.10" departSpeed="10.00" departDelay="0.70" arrival="263.50" arrivalLane="ce_0" arrivalPos="992.80" arrivalSpeed="7.75" duration="257.80" routeLength="1994.90" waitingTime="0.00" waitingCount="0" stopTime="0.00" timeLoss="58.28" rerouteNo="0" devices="tripinfo_A6" vType="typeCar@A6" speedFactor="1.00" vaporized=""/>
    <tripinfo id="A7" depart="7.90" departLane="wc_0" departPos="5.10" departSpeed="10.00" departDelay="1.90" arrival="264.50" arrivalLane="ce_0" arrivalPos="992.80" arrivalSpeed="7.74" duration="256.60" routeLength="1994.90" waitingTime="0.00" waitingCount="0" stopTime="0.00" timeLoss="57.08" rerouteNo="0" devices="tripinfo_A7" vType="typeCar@A7" speedFactor="1.00" vaporized=""/>
    <tripinfo id="A8" depart="9.40" departLane="sc_0" departPos="5.10" departSpeed="10.00" departDelay="3.40" arrival="266.50" arrivalLane="cn_0" arrivalPos="992.80" arrivalSpeed="8.20" duration="257.10" routeLength="1994.90" waitingTime="0.00" waitingCount="0" stopTime="0.00" timeLoss="57.58" rerouteNo="0" devices="tripinfo_A8" vType="typeCar@A8" speedFactor="1.00" vaporized=""/>
    <tripinfo id="A9" depart="10.70" departLane="wc_0" departPos="5.10" departSpeed="10.00" departDelay="2.70" arrival="268.50" arrivalLane="ce_0" arrivalPos="992.80" arrivalSpeed="8.02" duration="257.80" routeLength="1994.90" waitingTime="0.00" waitingCount="0" stopTime="0.00" timeLoss="58.28" rerouteNo="0" devices="tripinfo_A9" vType="typeCar@A9" speedFactor="1.00" vaporized=""/>
    <tripinfo id="B10" depart="12.30" departLane="sc_0" departPos="5.10" departSpeed="10.00" departDelay="3.30" arrival="270.50" arrivalLane="cn_0" arrivalPos="992.80" arrivalSpeed="7.71" duration="258.20" routeLength="1994.90" waitingTime="0.00" waitingCount="0" stopTime="0.00" timeLoss="58.68" rerouteNo="0" devices="tripinfo_B10" vType="typeCar@B10" speedFactor="1.00" vaporized=""/>
    <tripinfo id="B11" depart="13.60" departLane="wc_0" departPos="5.10" departSpeed="10.00" departDelay="2.60" arrival="272.50" arrivalLane="ce_0" arrivalPos="992.80" arrivalSpeed="7.70" duration="258.90" routeLength="1994.90" waitingTime="0.00" waitingCount="0" stopTime="0.00" timeLoss="59.38" rerouteNo="0" devices="tripinfo_B11" vType="typeCar@B11" speedFactor="1.00" vaporized=""/>
    <tripinfo id="B12" depart="15.10" departLane="sc_0" departPos="5.10" departSpeed="10.00" departDelay="4.10" arrival="274.50" arrivalLane="cn_0" arrivalPos="992.80" arrivalSpeed="7.82" duration="259.40" routeLength="1994.90" waitingTime="0.00" waitingCount="0" stopTime="0.00" timeLoss="59.88" rerouteNo="0" devices="tripinfo_B12" vType="typeCar@B12" speedFactor="1.00" vaporized=""/>
    <tripinfo id="B13" depart="18.00" departLane="sc_0" departPos="5.10" departSpeed="10.00" departDelay="6.00" arrival="275.50" arrivalLane="cn_0" arrivalPos="992.80" arrivalSpeed="8.14" duration="257.50" routeLength="1994.90" waitingTime="0.00" waitingCount="0" stopTime="0.00" timeLoss="57.98" rerouteNo="0" devices="tripinfo_B13" vType="typeCar@B13" speedFactor="1.00" vaporized=""/>
    <tripinfo id="B14" depart="16.50" departLane="wc_0" departPos="5.10" departSpeed="10.00" departDelay="3.50" arrival="277.50" arrivalLane="ce_0" arrivalPos="992.80" arrivalSpeed="8.05" duration="261.00" routeLength="1994.90" waitingTime="0.00" waitingCount="0" stopTime="0.00" timeLoss="61.48" rerouteNo="0" devices="tripinfo_B14" vType="typeCar@B14" speedFactor="1.00" vaporized=""/>
    <tripinfo id="B15" depart="20.90" departLane="sc_0" departPos="5.10" departSpeed="10.00" departDelay="7.90" arrival="279.50" arrivalLane="cn_0" arrivalPos="992.80" arrivalSpeed="8.09" duration="258.60" routeLength="1994.90" waitingTime="0.00" waitingCount="0" stopTime="0.00" timeLoss="59.08" rerouteNo="0" devices="tripinfo_B15" vType="typeCar@B15" speedFactor="1.00" vaporized=""/>
    <tripinfo id="B16" depart="19.40" departLane="wc_0" departPos="5.10" departSpeed="10.00" departDelay="3.40" arrival="281.50" arrivalLane="ce_0" arrivalPos="992.80" arrivalSpeed="8.06" duration="262.10" routeLength="1994.90" waitingTime="0.00" waitingCount="0" stopTime="0.00" timeLoss="62.58" rerouteNo="0" devices="tripinfo_B16" vType="typeCar@B16" speedFactor="1.00" vaporized=""/>
    <tripinfo id="B17" depart="22.10" departLane="wc_0" departPos="5.10" departSpeed="10.00" departDelay="5.10" arrival="282.50" arrivalLane="ce_0" arrivalPos="992.80" arrivalSpeed="8.06" duration="260.40" routeLength="1994.90" waitingTime="0.00" waitingCount="0" stopTime="0.00" timeLoss="60.88" rerouteNo="0" devices="tripinfo_B17" vType="typeCar@B17" speedFactor="1.00" vaporized=""/>
    <tripinfo id="B18" depart="23.80" departLane="sc_0" departPos="5.10" departSpeed="10.00" departDelay="3.80" arrival="284.50" arrivalLane="cn_0" arrivalPos="992.80" arrivalSpeed="8.17" duration="260.70" routeLength="1994.90" waitingTime="0.00" waitingCount="0" stopTime="0.00" timeLoss="61.18" rerouteNo="0" devices="tripinfo_B18" vType="typeCar@B18" speedFactor="1.00" vaporized=""/>
    <tripinfo id="B19" depart="24.80" departLane="wc_0" departPos="5.10" departSpeed="10.00" departDelay="3.80" arrival="286.50" arrivalLane="ce_0" arrivalPos="992.80" arrivalSpeed="7.95" duration="261.70" routeLength="1994.90" waitingTime="0.00" waitingCount="0" stopTime="0.00" timeLoss="62.18" rerouteNo="0" devices="tripinfo_B19" vType="typeCar@B19" speedFactor="1.00" vaporized=""/>
    <tripinfo id="C20" depart="26.70" departLane="sc_0" departPos="5.10" departSpeed="10.00" departDelay="5.70" arrival="288.50" arrivalLane="cn_0" arrivalPos="992.80" arrivalSpeed="8.18" duration="261.80" routeLength="1994.90" waitingTime="0.00" waitingCount="0" stopTime="0.00" timeLoss="62.28" rerouteNo="0" devices="tripinfo_C20" vType="typeCar@C20" speedFactor="1.00" vaporized=""/>
    <tripinfo id="C21" depart="27.70" departLane="wc_0" departPos="5.10" departSpeed="10.00" departDelay="5.70" arrival="290.50" arrivalLane="ce_0" arrivalPos="992.80" arrivalSpeed="8.03" duration="262.80" routeLength="1994.90" waitingTime="0.00" waitingCount="0" stopTime="0.00" timeLoss="63.28" rerouteNo="0" devices="tripinfo_C21" vType="typeCar@C21" speedFactor="1.00" vaporized=""/>
    <tripinfo id="C22" depart="29.50" departLane="sc_0" departPos="5.10" departSpeed="10.00" departDelay="7.50" arrival="292.50" arrivalLane="cn_0" arrivalPos="992.80" arrivalSpeed="8.21" duration="263.00" routeLength="1994.90" waitingTime="0.00" waitingCount="0" stopTime="0.00" timeLoss="63.48" rerouteNo="0" devices="tripinfo_C22" vType="typeCar@C22" speedFactor="1.00" vaporized=""/>
    <tripinfo id="C23" depart="30.50" departLane="wc_0" departPos="5.10" departSpeed="10.00" departDelay="7.50" arrival="294.50" arrivalLane="ce_0" arrivalPos="992.80" arrivalSpeed="8.11" duration="264.00" routeLength="1994.90" waitingTime="0.00" waitingCount="0" stopTime="0.00" timeLoss="64.48" rerouteNo="0" devices="tripinfo_C23" vType="typeCar@C23" speedFactor="1.00" vaporized=""/>
    <tripinfo id="C24" depart="32.40" departLane="sc_0" departPos="5.10" departSpeed="10.00" departDelay="9.40" arrival="296.50" arrivalLane="cn_0" arrivalPos="992.80" arrivalSpeed="8.16" duration="264.10" routeLength="1994.90" waitingTime="0.00" waitingCount="0" stopTime="0.00" timeLoss="64.58" rerouteNo="0" devices="tripinfo_C24" vType="typeCar@C24" speedFactor="1.00" vaporized=""/>
    <tripinfo id="C25" depart="35.30" departLane="sc_0" departPos="5.10" departSpeed="10.00" departDelay="11.30" arrival="297.50" arrivalLane="cn_0" arrivalPos="992.80" arrivalSpeed="8.00" duration="262.20" routeLength="1994.90" waitingTime="0.00" waitingCount="0" stopTime="0.00" timeLoss="62.68" rerouteNo="0" devices="tripinfo_C25" vType="typeCar@C25" speedFactor="1.00" vaporized=""/>
    <tripinfo id="C26" depart="33.40" departLane="wc_0" departPos="5.10" departSpeed="10.00" departDelay="8.40" arrival="299.50" arrivalLane="ce_0" arrivalPos="992.80" arrivalSpeed="7.98" duration="266.10" routeLength="1994.90" waitingTime="0.00" waitingCount="0" stopTime="0.00" timeLoss="66.58" rerouteNo="0" devices="tripinfo_C26" vType="typeCar@C26" speedFactor="1.00" vaporized=""/>
    <tripinfo id="C27" depart="38.20" departLane="sc_0" departPos="5.10" departSpeed="10.00" departDelay="13.20" arrival="301.50" arrivalLane="cn_0" arrivalPos="992.80" arrivalSpeed="8.01" duration="263.30" routeLength="1994.90" waitingTime="0.00" waitingCount="0" stopTime="0.00" timeLoss="63.78" rerouteNo="0" devices="tripinfo_C27" vType="typeCar@C27" speedFactor="1.00" vaporized=""/>
    <tripinfo id="C28" depart="36.30" departLane="wc_0" departPos="5.10" departSpeed="10.00" departDelay="10.30" arrival="303.50" arrivalLane="ce_0" arrivalPos="992.80" arrivalSpeed="7.76" duration="267.20" routeLength="1994.90" waitingTime="0.00" waitingCount="0" stopTime="0.00" timeLoss="67.68" rerouteNo="0" devices="tripinfo_C28" vType="typeCar@C28" speedFactor="1.00" vaporized=""/>
    <tripinfo id="C29" depart="39.00" departLane="wc_0" departPos="5.10" departSpeed="10.00" departDelay="11.00" arrival="304.50" arrivalLane="ce_0" arrivalPos="992.80" arrivalSpeed="8.01" duration="265.50" routeLength="1994.90" waitingTime="0.00" waitingCount="0" stopTime="0.00" timeLoss="65.98" rerouteNo="0" devices="tripinfo_C29" vType="typeCar@C29" speedFactor="1.00" vaporized=""/>
    <tripinfo id="D30" depart="41.70" departLane="wc_0" departPos="5.10" departSpeed="10.00" departDelay="12.70" arrival="305.50" arrivalLane="ce_0" arrivalPos="992.80" arrivalSpeed="8.11" duration="263.80" routeLength="1994.90" waitingTime="0.00" waitingCount="0" stopTime="0.00" timeLoss="64.28" rerouteNo="0" devices="tripinfo_D30" vType="typeCar@D30" speedFactor="1.00" vaporized=""/>
    <tripinfo id="D31" depart="41.00" departLane="sc_0" departPos="5.10" departSpeed="10.00" departDelay="12.00" arrival="307.50" arrivalLane="cn_0" arrivalPos="992.80" arrivalSpeed="7.89" duration="266.50" routeLength="1994.90" waitingTime="0.00" waitingCount="0" stopTime="0.00" timeLoss="66.98" rerouteNo="0" devices="tripinfo_D31" vType="typeCar@D31" speedFactor="1.00" vaporized=""/>
    <tripinfo id="D32" depart="44.60" departLane="wc_0" departPos="5.10" departSpeed="10.00" departDelay="13.60" arrival="309.50" arrivalLane="ce_0" arrivalPos="992.80" arrivalSpeed="8.08" duration="264.90" routeLength="1994.90" waitingTime="0.00" waitingCount="0" stopTime="0.00" timeLoss="65.38" rerouteNo="0" devices="tripinfo_D32" vType="typeCar@D32" speedFactor="1.00" vaporized=""/>
    <tripinfo id="D33" depart="47.40" departLane="wc_0" departPos="5.10" departSpeed="10.00" departDelay="14.40" arrival="310.50" arrivalLane="ce_0" arrivalPos="992.80" arrivalSpeed="8.01" duration="263.10" routeLength="1994.90" waitingTime="0.00" waitingCount="0" stopTime="0.00" timeLoss="63.58" rerouteNo="0" devices="tripinfo_D33" vType="typeCar@D33" speedFactor="1.00" vaporized=""/>
    <tripinfo id="D34" depart="43.90" departLane="sc_0" departPos="5.10" departSpeed="10.00" departDelay="10.90" arrival="312.50" arrivalLane="cn_0" arrivalPos="992.80" arrivalSpeed="7.71" duration="268.60" routeLength="1994.90" waitingTime="0.00" waitingCount="0" stopTime="0.00" timeLoss="69.08" rerouteNo="0" devices="tripinfo_D34" vType="typeCar@D34" speedFactor="1.00" vaporized=""/>
    <tripinfo id="D35" depart="50.30" departLane="wc_0" departPos="5.10" departSpeed="10.00" departDelay="16.30" arrival="314.50" arrivalLane="ce_0" arrivalPos="992.80" arrivalSpeed="8.00" duration="264.20" routeLength="1994.90" waitingTime="0.00" waitingCount="0" stopTime="0.00" timeLoss="64.68" rerouteNo="0" devices="tripinfo_D35" vType="typeCar@D35" speedFactor="1.00" vaporized=""/>
    <tripinfo id="D36" depart="46.70" departLane="sc_0" departPos="5.10" departSpeed="10.00" departDelay="12.70" arrival="316.50" arrivalLane="cn_0" arrivalPos="992.80" arrivalSpeed="8.01" duration="269.80" routeLength="1994.90" waitingTime="0.00" waitingCount="0" stopTime="0.00" timeLoss="70.28" rerouteNo="0" devices="tripinfo_D36" vType="typeCar@D36" speedFactor="1.00" vaporized=""/>
    <tripinfo id="D37" depart="53.20" departLane="wc_0" departPos="5.10" departSpeed="10.00" departDelay="18.20" arrival="318.50" arrivalLane="ce_0" arrivalPos="992.80" arrivalSpeed="8.08" duration="265.30" routeLength="1994.90" waitingTime="0.00" waitingCount="0" stopTime="0.00" timeLoss="65.78" rerouteNo="0" devices="tripinfo_D37" vType="typeCar@D37" speedFactor="1.00" vaporized=""/>
    <tripinfo id="D38" depart="49.40" departLane="sc_0" departPos="5.10" departSpeed="10.00" departDelay="13.40" arrival="320.50" arrivalLane="cn_0" arrivalPos="992.80" arrivalSpeed="8.01" duration="271.10" routeLength="1994.90" waitingTime="0.00" waitingCount="0" stopTime="0.00" timeLoss="71.58" rerouteNo="0" devices="tripinfo_D38" vType="typeCar@D38" speedFactor="1.00" vaporized=""/>
    <tripinfo id="D39" depart="52.00" departLane="sc_0" departPos="5.10" departSpeed="10.00" departDelay="15.00" arrival="321.50" arrivalLane="cn_0" arrivalPos="992.80" arrivalSpeed="7.97" duration="269.50" routeLength="1994.90" waitingTime="0.00" waitingCount="0" stopTime="0.00" timeLoss="69.98" rerouteNo="0" devices="tripinfo_D39" vType="typeCar@D39" speedFactor="1.00" vaporized=""/>
    <tripinfo id="E40" depart="56.10" departLane="wc_0" departPos="5.10" departSpeed="10.00" departDelay="17.10" arrival="323.50" arrivalLane="ce_0" arrivalPos="992.80" arrivalSpeed="7.97" duration="267.40" routeLength="1994.90" waitingTime="0.00" waitingCount="0" stopTime="0.00" timeLoss="67.88" rerouteNo="0" devices="tripinfo_E40" vType="typeCar@E40" speedFactor="1.00" vaporized=""/>
    <tripinfo id="E41" depart="54.60" departLane="sc_0" departPos="5.10" departSpeed="10.00" departDelay="15.60" arrival="325.50" arrivalLane="cn_0" arrivalPos="992.80" arrivalSpeed="7.73" duration="270.90" routeLength="1994.90" waitingTime="0.00" waitingCount="0" stopTime="0.00" timeLoss="71.38" rerouteNo="0" devices="tripinfo_E41" vType="typeCar@E41" speedFactor="1.00" vaporized=""/>
    <tripinfo id="E42" depart="58.90" departLane="wc_0" departPos="5.10" departSpeed="10.00" departDelay="18.90" arrival="327.50" arrivalLane="ce_0" arrivalPos="992.80" arrivalSpeed="8.16" duration="268.60" routeLength="1994.90" waitingTime="0.00" waitingCount="0" stopTime="0.00" timeLoss="69.08" rerouteNo="0" devices="tripinfo_E42" vType="typeCar@E42" speedFactor="1.00" vaporized=""/>
    <tripinfo id="E43" depart="57.20" departLane="sc_0" departPos="5.10" departSpeed="10.00" departDelay="17.20" arrival="329.50" arrivalLane="cn_0" arrivalPos="992.80" arrivalSpeed="8.06" duration="272.30" routeLength="1994.90" waitingTime="0.00" waitingCount="0" stopTime="0.00" timeLoss="72.78" rerouteNo="0" devices="tripinfo_E43" vType="typeCar@E43" speedFactor="1.00" vaporized=""/>
    <tripinfo id="E44" depart="61.80" departLane="wc_0" departPos="5.10" departSpeed="10.00" departDelay="20.80" arrival="331.50" arrivalLane="ce_0" arrivalPos="992.80" arrivalSpeed="7.87" duration="269.70" routeLength="1994.90" waitingTime="0.00" waitingCount="0" stopTime="0.00" timeLoss="70.18" rerouteNo="0" devices="tripinfo_E44" vType="typeCar@E44" speedFactor="1.00" vaporized=""/>
    <tripinfo id="E45" depart="64.70" departLane="wc_0" departPos="5.10" departSpeed="10.00" departDelay="22.70" arrival="332.50" arrivalLane="ce_0" arrivalPos="992.80" arrivalSpeed="8.08" duration="267.80" routeLength="1994.90" waitingTime="0.00" waitingCount="0" stopTime="0.00" timeLoss="68.28" rerouteNo="0" devices="tripinfo_E45" vType="typeCar@E45" speedFactor="1.00" vaporized=""/>
    <tripinfo id="E46" depart="59.90" departLane="sc_0" departPos="5.10" departSpeed="10.00" departDelay="17.90" arrival="334.50" arrivalLane="cn_0" arrivalPos="992.80" arrivalSpeed="8.15" duration="274.60" routeLength="1994.90" waitingTime="0.00" waitingCount="0" stopTime="0.00" timeLoss="75.08" rerouteNo="0" devices="tripinfo_E46" vType="typeCar@E46" speedFactor="1.00" vaporized=""/>
    <tripinfo id="E47" depart="67.60" departLane="wc_0" departPos="5.10" departSpeed="10.00" departDelay="23.60" arrival="336.50" arrivalLane="ce_0" arrivalPos="992.80" arrivalSpeed="7.87" duration="268.90" routeLength="1994.90" waitingTime="0.00" waitingCount="0" stopTime="0.00" timeLoss="69.38" rerouteNo="0" devices="tripinfo_E47" vType="typeCar@E47" speedFactor="1.00" vaporized=""/>
    <tripinfo id="E48" depart="62.60" departLane="sc_0" departPos="5.10" departSpeed="10.00" departDelay="18.60" arrival="338.50" arrivalLane="cn_0" arrivalPos="992.80" arrivalSpeed="7.91" duration="275.90" routeLength="1994.90" waitingTime="0.00" waitingCount="0" stopTime="0.00" timeLoss="76.38" rerouteNo="0" devices="tripinfo_E48" vType="typeCar@E48" speedFactor="1.00" vaporized=""/>
    <tripinfo id="E49" depart="70.40" departLane="wc_0" departPos="5.10" departSpeed="10.00" departDelay="25.40" arrival="340.50" arrivalLane="ce_0" arrivalPos="992.80" arrivalSpeed="8.07" duration="270.10" routeLength="1994.90" waitingTime="0.00" waitingCount="0" stopTime="0.00" timeLoss="70.58" rerouteNo="0" devices="tripinfo_E49" vType="typeCar@E49" speedFactor="1.00" vaporized=""/>
    <tripinfo id="F50" depart="73.30" departLane="wc_0" departPos="5.10" departSpeed="10.00" departDelay="26.30" arrival="341.50" arrivalLane="ce_0" arrivalPos="992.80" arrivalSpeed="8.03" duration="268.20" routeLength="1994.90" waitingTime="0.00" waitingCount="0" stopTime="0.00" timeLoss="68.68" rerouteNo="0" devices="tripinfo_F50" vType="typeCar@F50" speedFactor="1.00" vaporized=""/>
    <tripinfo id="F51" depart="65.30" departLane="sc_0" departPos="5.10" departSpeed="10.00" departDelay="18.30" arrival="343.50" arrivalLane="cn_0" arrivalPos="992.80" arrivalSpeed="8.01" duration="278.20" routeLength="1994.90" waitingTime="0.00" waitingCount="0" stopTime="0.00" timeLoss="78.68" rerouteNo="0" devices="tripinfo_F51" vType="typeCar@F51" speedFactor="1.00" vaporized=""/>
    <tripinfo id="F52" depart="76.20" departLane="wc_0" departPos="5.10" departSpeed="10.00" departDelay="26.20" arrival="345.50" arrivalLane="ce_0" arrivalPos="992.80" arrivalSpeed="8.06" duration="269.30" routeLength="1994.90" waitingTime="0.00" waitingCount="0" stopTime="0.00" timeLoss="69.78" rerouteNo="0" devices="tripinfo_F52" vType="typeCar@F52" speedFactor="1.00" vaporized=""/>
    <tripinfo id="F53" depart="79.10" departLane="wc_0" departPos="5.10" departSpeed="10.00" departDelay="27.10" arrival="346.50" arrivalLane="ce_0" arrivalPos="992.80" arrivalSpeed="8.08" duration="267.40" routeLength="1994.90" waitingTime="0.00" waitingCount="0" stopTime="0.00" timeLoss="67.88" rerouteNo="0" devices="tripinfo_F53" vType="typeCar@F53" speedFactor="1.00" vaporized=""/>
    <tripinfo id="F54" depart="81.90" departLane="wc_0" departPos="5.10" departSpeed="10.00" departDelay="28.90" arrival="347.50" arrivalLane="ce_0" arrivalPos="992.80" arrivalSpeed="8.17" duration="265.60" routeLength="1994.90" waitingTime="0.00" waitingCount="0" stopTime="0.00" timeLoss="66.08" rerouteNo="0" devices="tripinfo_F54" vType="typeCar@F54" speedFactor="1.00" vaporized=""/>
    <tripinfo id="F55" depart="84.80" departLane="wc_0" departPos="5.10" departSpeed="10.00" departDelay="30.80" arrival="348.50" arrivalLane="ce_0" arrivalPos="992.80" arrivalSpeed="8.20" duration="263.70" routeLength="1994.90" waitingTime="0.00" waitingCount="0" stopTime="0.00" timeLoss="64.18" rerouteNo="0" devices="tripinfo_F55" vType="typeCar@F55" speedFactor="1.00" vaporized=""/>
    <tripinfo id="F56" depart="67.90" departLane="sc_0" departPos="5.10" departSpeed="10.00" departDelay="12.90" arrival="350.50" arrivalLane="cn_0" arrivalPos="992.80" arrivalSpeed="8.11" duration="282.60" routeLength="1994.90" waitingTime="0.00" waitingCount="0" stopTime="0.00" timeLoss="83.08" rerouteNo="0" devices="tripinfo_F56" vType="typeCar@F56" speedFactor="1.00" vaporized=""/>
    <tripinfo id="F57" depart="87.70" departLane="wc_0" departPos="5.10" departSpeed="10.00" departDelay="31.70" arrival="352.50" arrivalLane="ce_0" arrivalPos="992.80" arrivalSpeed="8.13" duration="264.80" routeLength="1994.90" waitingTime="0.00" waitingCount="0" stopTime="0.00" timeLoss="65.28" rerouteNo="0" devices="tripinfo_F57" vType="typeCar@F57" speedFactor="1.00" vaporized=""/>
    <tripinfo id="F58" depart="70.50" departLane="sc_0" departPos="5.10" departSpeed="10.00" departDelay="14.50" arrival="354.50" arrivalLane="cn_0" arrivalPos="992.80" arrivalSpeed="8.03" duration="284.00" routeLength="1994.90" waitingTime="0.00" waitingCount="0" stopTime="0.00" timeLoss="84.48" rerouteNo="0" devices="tripinfo_F58" vType="typeCar@F58" speedFactor="1.00" vaporized=""/>
    <tripinfo id="F59" depart="90.60" departLane="wc_0" departPos="5.10" departSpeed="10.00" departDelay="32.60" arrival="356.50" arrivalLane="ce_0" arrivalPos="992.80" arrivalSpeed="7.99" duration="265.90" routeLength="1994.90" waitingTime="0.00" waitingCount="0" stopTime="0.00" timeLoss="66.38" rerouteNo="0" devices="tripinfo_F59" vType="typeCar@F59" speedFactor="1.00" vaporized=""/>
    <tripinfo id="G60" depart="73.10" departLane="sc_0" departPos="5.10" departSpeed="10.00" departDelay="14.10" arrival="358.50" arrivalLane="cn_0" arrivalPos="992.80" arrivalSpeed="8.18" duration="285.40" routeLength="1994.90" waitingTime="0.00" waitingCount="0" stopTime="0.00" timeLoss="85.88" rerouteNo="0" devices="tripinfo_G60" vType="typeCar@G60" speedFactor="1.00" vaporized=""/>
    <tripinfo id="G61" depart="93.40" departLane="wc_0" departPos="5.10" departSpeed="10.00" departDelay="31.40" arrival="360.50" arrivalLane="ce_0" arrivalPos="992.80" arrivalSpeed="8.15" duration="267.10" routeLength="1994.90" waitingTime="0.00" waitingCount="0" stopTime="0.00" timeLoss="67.58" rerouteNo="0" devices="tripinfo_G61" vType="typeCar@G61" speedFactor="1.00" vaporized=""/>
    <tripinfo id="G62" depart="75.60" departLane="sc_0" departPos="5.10" departSpeed="10.00" departDelay="13.60" arrival="362.50" arrivalLane="cn_0" arrivalPos="992.80" arrivalSpeed="7.83" duration="286.90" routeLength="1994.90" waitingTime="0.00" waitingCount="0" stopTime="0.00" timeLoss="87.38" rerouteNo="0" devices="tripinfo_G62" vType="typeCar@G62" speedFactor="1.00" vaporized=""/>
    <tripinfo id="G63" depart="96.30" departLane="wc_0" departPos="5.10" departSpeed="10.00" departDelay="33.30" arrival="364.50" arrivalLane="ce_0" arrivalPos="992.80" arrivalSpeed="8.10" duration="268.20" routeLength="1994.90" waitingTime="0.00" waitingCount="0" stopTime="0.00" timeLoss="68.68" rerouteNo="0" devices="tripinfo_G63" vType="typeCar@G63" speedFactor="1.00" vaporized=""/>
    <tripinfo id="G64" depart="99.20" departLane="wc_0" departPos="5.10" departSpeed="10.00" departDelay="34.20" arrival="365.50" arrivalLane="ce_0" arrivalPos="992.80" arrivalSpeed="8.14" duration="266.30" routeLength="1994.90" waitingTime="0.00" waitingCount="0" stopTime="0.00" timeLoss="66.78" rerouteNo="0" devices="tripinfo_G64" vType="typeCar@G64" speedFactor="1.00" vaporized=""/>
    <tripinfo id="G65" depart="78.10" departLane="sc_0" departPos="5.10" departSpeed="10.00" departDelay="13.10" arrival="367.50" arrivalLane="cn_0" arrivalPos="992.80" arrivalSpeed="8.03" duration="289.40" routeLength="1994.90" waitingTime="0.00" waitingCount="0" stopTime="0.00" timeLoss="89.88" rerouteNo="0" devices="tripinfo_G65" vType="typeCar@G65" speedFactor="1.00" vaporized=""/>
    <tripinfo id="G66" depart="102.10" departLane="wc_0" departPos="5.10" departSpeed="10.00" departDelay="35.10" arrival="369.50" arrivalLane="ce_0" arrivalPos="992.80" arrivalSpeed="8.17" duration="267.40" routeLength="1994.90" waitingTime="0.00" waitingCount="0" stopTime="0.00" timeLoss="67.88" rerouteNo="0" devices="tripinfo_G66" vType="typeCar@G66" speedFactor="1.00" vaporized=""/>
    <tripinfo id="G67" depart="104.90" departLane="wc_0" departPos="5.10" departSpeed="10.00" departDelay="36.90" arrival="370.50" arrivalLane="ce_0" arrivalPos="992.80" arrivalSpeed="7.76" duration="265.60" routeLength="1994.90" waitingTime="0.00" waitingCount="0" stopTime="0.00" timeLoss="66.08" rerouteNo="0" devices="tripinfo_G67" vType="typeCar@G67" speedFactor="1.00" vaporized=""/>
    <tripinfo id="G68" depart="80.70" departLane="sc_0" departPos="5.10" departSpeed="10.00" departDelay="11.70" arrival="372.50" arrivalLane="cn_0" arrivalPos="992.80" arrivalSpeed="8.09" duration="291.80" routeLength="1994.90" waitingTime="0.00" waitingCount="0" stopTime="0.00" timeLoss="92.28" rerouteNo="0" devices="tripinfo_G68" vType="typeCar@G68" speedFactor="1.00" vaporized=""/>
    <tripinfo id="G69" depart="107.80" departLane="wc_0" departPos="5.10" departSpeed="10.00" departDelay="37.80" arrival="374.50" arrivalLane="ce_0" arrivalPos="992.80" arrivalSpeed="8.14" duration="266.70" routeLength="1994.90" waitingTime="0.00" waitingCount="0" stopTime="0.00" timeLoss="67.18" rerouteNo="0" devices="tripinfo_G69" vType="typeCar@G69" speedFactor="1.00" vaporized=""/>
    <tripinfo id="H70" depart="110.70" departLane="wc_0" departPos="5.10" departSpeed="10.00" departDelay="39.70" arrival="375.50" arrivalLane="ce_0" arrivalPos="992.80" arrivalSpeed="8.19" duration="264.80" routeLength="1994.90" waitingTime="0.00" waitingCount="0" stopTime="0.00" timeLoss="65.28" rerouteNo="0" devices="tripinfo_H70" vType="typeCar@H70" speedFactor="1.00" vaporized=""/>
    <tripinfo id="H71" depart="113.60" departLane="wc_0" departPos="5.10" departSpeed="10.00" departDelay="41.60" arrival="376.50" arrivalLane="ce_0" arrivalPos="992.80" arrivalSpeed="8.10" duration="262.90" routeLength="1994.90" waitingTime="0.00" waitingCount="0" stopTime="0.00" timeLoss="63.38" rerouteNo="0" devices="tripinfo_H71" vType="typeCar@H71" speedFactor="1.00" vaporized=""/>
    <tripinfo id="H72" depart="83.20" departLane="sc_0" departPos="5.10" departSpeed="10.00" departDelay="11.20" arrival="378.50" arrivalLane="cn_0" arrivalPos="992.80" arrivalSpeed="7.96" duration="295.30" routeLength="1994.90" waitingTime="0.00" waitingCount="0" stopTime="0.00" timeLoss="95.78" rerouteNo="0" devices="tripinfo_H72" vType="typeCar@H72" speedFactor="1.00" vaporized=""/>
    <tripinfo id="H73" depart="116.40" departLane="wc_0" departPos="5.10" departSpeed="10.00" departDelay="43.40" arrival="380.50" arrivalLane="ce_0" arrivalPos="992.80" arrivalSpeed="7.98" duration="264.10" routeLength="1994.90" waitingTime="0.00" waitingCount="0" stopTime="0.00" timeLoss="64.58" rerouteNo="0" devices="tripinfo_H73" vType="typeCar@H73" speedFactor="1.00" vaporized=""/>