<?xml version="1.0" encoding="UTF-8"?>

<!-- generated on 2022-07-30 15:19:37 by Eclipse SUMO GUI Version 1.13.0
<configuration xmlns:xsi="http://www.w3.org/2001/XMLSchema-instance" xsi:noNamespaceSchemaLocation="http://sumo.dlr.de/xsd/sumoConfiguration.xsd">

    <input>
        <net-file value="net.net.xml"/>
        <route-files value="routes.rou.xml"/>
    </input>

    <output>
        <tripinfo-output value="raw_data/(3,0,0)tripinfo.xml"/>
    </output>

    <time>
        <begin value="0"/>
        <step-length value="0.1"/>
    </time>

    <processing>
        <collision.action value="warn"/>
        <collision.stoptime value="1"/>
        <collision.mingap-factor value="1"/>
    </processing>

    <report>
        <verbose value="false"/>
        <log value="log.txt"/>
        <duration-log.statistics value="true"/>
        <no-step-log value="true"/>
    </report>

    <traci_server>
        <remote-port value="11163"/>
    </traci_server>

    <gui_only>
        <tracker-interval value="0.1"/>
    </gui_only>

</configuration>
-->

<tripinfos xmlns:xsi="http://www.w3.org/2001/XMLSchema-instance" xsi:noNamespaceSchemaLocation="http://sumo.dlr.de/xsd/tripinfo_file.xsd">
    <tripinfo id="A0" depart="0.00" departLane="sc_0" departPos="5.10" departSpeed="10.00" departDelay="0.00" arrival="252.50" arrivalLane="cn_0" arrivalPos="992.80" arrivalSpeed="8.13" duration="252.50" routeLength="1994.90" waitingTime="0.00" waitingCount="0" stopTime="0.00" timeLoss="52.98" rerouteNo="0" devices="tripinfo_A0" vType="typeCar@A0" speedFactor="1.00" vaporized=""/>
    <tripinfo id="A1" depart="1.70" departLane="sc_0" departPos="5.10" departSpeed="10.00" departDelay="0.70" arrival="253.50" arrivalLane="cn_0" arrivalPos="992.80" arrivalSpeed="8.15" duration="251.80" routeLength="1994.90" waitingTime="0.00" waitingCount="0" stopTime="0.00" timeLoss="52.28" rerouteNo="0" devices="tripinfo_A1" vType="typeCar@A1" speedFactor="1.00" vaporized=""/>
    <tripinfo id="A2" depart="3.40" departLane="sc_0" departPos="5.10" departSpeed="10.00" departDelay="0.40" arrival="254.50" arrivalLane="cn_0" arrivalPos="992.80" arrivalSpeed="8.14" duration="251.10" routeLength="1994.90" waitingTime="0.00" waitingCount="0" stopTime="0.00" timeLoss="51.58" rerouteNo="0" devices="tripinfo_A2" vType="typeCar@A2" speedFactor="1.00" vaporized=""/>
    <tripinfo id="A3" depart="6.50" departLane="sc_0" departPos="5.10" departSpeed="10.00" departDelay="2.50" arrival="255.50" arrivalLane="cn_0" arrivalPos="992.80" arrivalSpeed="8.12" duration="249.00" routeLength="1994.90" waitingTime="0.00" waitingCount="0" stopTime="0.00" timeLoss="49.48" rerouteNo="0" devices="tripinfo_A3" vType="typeCar@A3" speedFactor="1.00" vaporized=""/>
    <tripinfo id="A4" depart="9.40" departLane="sc_0" departPos="5.10" departSpeed="10.00" departDelay="4.40" arrival="256.50" arrivalLane="cn_0" arrivalPos="992.80" arrivalSpeed="7.92" duration="247.10" routeLength="1994.90" waitingTime="0.00" waitingCount="0" stopTime="0.00" timeLoss="47.58" rerouteNo="0" devices="tripinfo_A4" vType="typeCar@A4" speedFactor="1.00" vaporized=""/>
    <tripinfo id="A5" depart="11.30" departLane="sc_0" departPos="5.10" departSpeed="10.00" departDelay="5.30" arrival="257.50" arrivalLane="cn_0" arrivalPos="992.80" arrivalSpeed="8.08" duration="246.20" routeLength="1994.90" waitingTime="0.00" waitingCount="0" stopTime="0.00" timeLoss="46.68" rerouteNo="0" devices="tripinfo_A5" vType="typeCar@A5" speedFactor="1.00" vaporized=""/>
    <tripinfo id="A6" depart="13.00" departLane="sc_0" departPos="5.10" departSpeed="10.00" departDelay="6.00" arrival="258.50" arrivalLane="cn_0" arrivalPos="992.80" arrivalSpeed="8.10" duration="245.50" routeLength="1994.90" waitingTime="0.00" waitingCount="0" stopTime="0.00" timeLoss="45.98" rerouteNo="0" devices="tripinfo_A6" vType="typeCar@A6" speedFactor="1.00" vaporized=""/>
    <tripinfo id="A7" depart="14.70" departLane="sc_0" departPos="5.10" departSpeed="10.00" departDelay="6.70" arrival="259.50" arrivalLane="cn_0" arrivalPos="992.80" arrivalSpeed="7.71" duration="244.80" routeLength="1994.90" waitingTime="0.00" waitingCount="0" stopTime="0.00" timeLoss="45.28" rerouteNo="0" devices="tripinfo_A7" vType="typeCar@A7" speedFactor="1.00" vaporized=""/>
    <tripinfo id="A8" depart="16.40" departLane="sc_0" departPos="5.10" departSpeed="10.00" departDelay="7.40" arrival="260.50" arrivalLane="cn_0" arrivalPos="992.80" arrivalSpeed="8.19" duration="244.10" routeLength="1994.90" waitingTime="0.00" waitingCount="0" stopTime="0.00" timeLoss="44.58" rerouteNo="0" devices="tripinfo_A8" vType="typeCar@A8" speedFactor="1.00" vaporized=""/>
    <tripinfo id="A9" depart="18.10" departLane="sc_0" departPos="5.10" departSpeed="10.00" departDelay="7.10" arrival="261.50" arrivalLane="cn_0" arrivalPos="992.80" arrivalSpeed="8.08" duration="243.40" routeLength="1994.90" waitingTime="0.00" waitingCount="0" stopTime="0.00" timeLoss="43.88" rerouteNo="0" devices="tripinfo_A9" vType="typeCar@A9" speedFactor="1.00" vaporized=""/>
    <tripinfo id="B10" depart="19.80" departLane="sc_0" departPos="5.10" departSpeed="10.00" departDelay="7.80" arrival="262.50" arrivalLane="cn_0" arrivalPos="992.80" arrivalSpeed="7.84" duration="242.70" routeLength="1994.90" waitingTime="0.00" waitingCount="0" stopTime="0.00" timeLoss="43.18" rerouteNo="0" devices="tripinfo_B10" vType="typeCar@B10" speedFactor="1.00" vaporized=""/>
    <tripinfo id="B11" depart="21.50" departLane="sc_0" departPos="5.10" departSpeed="10.00" departDelay="8.50" arrival="263.50" arrivalLane="cn_0" arrivalPos="992.80" arrivalSpeed="7.97" duration="242.00" routeLength="1994.90" waitingTime="0.00" waitingCount="0" stopTime="0.00" timeLoss="42.48" rerouteNo="0" devices="tripinfo_B11" vType="typeCar@B11" speedFactor="1.00" vaporized=""/>
    <tripinfo id="B12" depart="23.20" departLane="sc_0" departPos="5.10" departSpeed="10.00" departDelay="6.20" arrival="264.50" arrivalLane="cn_0" arrivalPos="992.80" arrivalSpeed="8.11" duration="241.30" routeLength="1994.90" waitingTime="0.00" waitingCount="0" stopTime="0.00" timeLoss="41.78" rerouteNo="0" devices="tripinfo_B12" vType="typeCar@B12" speedFactor="1.00" vaporized=""/>
    <tripinfo id="B13" depart="24.90" departLane="sc_0" departPos="5.10" departSpeed="10.00" departDelay="5.90" arrival="265.50" arrivalLane="cn_0" arrivalPos="992.80" arrivalSpeed="8.17" duration="240.60" routeLength="1994.90" waitingTime="0.00" waitingCount="0" stopTime="0.00" timeLoss="41.08" rerouteNo="0" devices="tripinfo_B13" vType="typeCar@B13" speedFactor="1.00" vaporized=""/>
    <tripinfo id="B14" depart="26.60" departLane="sc_0" departPos="5.10" departSpeed="10.00" departDelay="6.60" arrival="266.50" arrivalLane="cn_0" arrivalPos="992.80" arrivalSpeed="8.14" duration="239.90" routeLength="1994.90" waitingTime="0.00" waitingCount="0" stopTime="0.00" timeLoss="40.38" rerouteNo="0" devices="tripinfo_B14" vType="typeCar@B14" speedFactor="1.00" vaporized=""/>
    <tripinfo id="B15" depart="28.30" departLane="sc_0" departPos="5.10" departSpeed="10.00" departDelay="7.30" arrival="267.50" arrivalLane="cn_0" arrivalPos="992.80" arrivalSpeed="7.73" duration="239.20" routeLength="1994.90" waitingTime="0.00" waitingCount="0" stopTime="0.00" timeLoss="39.68" rerouteNo="0" devices="tripinfo_B15" vType="typeCar@B15" speedFactor="1.00" vaporized=""/>
    <tripinfo id="B16" depart="30.00" departLane="sc_0" departPos="5.10" departSpeed="10.00" departDelay="8.00" arrival="268.50" arrivalLane="cn_0" arrivalPos="992.80" arrivalSpeed="8.03" duration="238.50" routeLength="1994.90" waitingTime="0.00" waitingCount="0" stopTime="0.00" timeLoss="38.98" rerouteNo="0" devices="tripinfo_B16" vType="typeCar@B16" speedFactor="1.00" vaporized=""/>
    <tripinfo id="B17" depart="31.70" departLane="sc_0" departPos="5.10" departSpeed="10.00" departDelay="8.70" arrival="269.50" arrivalLane="cn_0" arrivalPos="992.80" arrivalSpeed="7.98" duration="237.80" routeLength="1994.90" waitingTime="0.00" waitingCount="0" stopTime="0.00" timeLoss="38.28" rerouteNo="0" devices="tripinfo_B17" vType="typeCar@B17" speedFactor="1.00" vaporized=""/>
    <tripinfo id="B18" depart="33.40" departLane="sc_0" departPos="5.10" departSpeed="10.00" departDelay="9.40" arrival="270.50" arrivalLane="cn_0" arrivalPos="992.80" arrivalSpeed="8.20" duration="237.10" routeLength="1994.90" waitingTime="0.00" waitingCount="0" stopTime="0.00" timeLoss="37.58" rerouteNo="0" devices="tripinfo_B18" vType="typeCar@B18" speedFactor="1.00" vaporized=""/>
    <tripinfo id="B19" depart="35.10" departLane="sc_0" departPos="5.10" departSpeed="10.00" departDelay="10.10" arrival="271.50" arrivalLane="cn_0" arrivalPos="992.80" arrivalSpeed="7.92" duration="236.40" routeLength="1994.90" waitingTime="0.00" waitingCount="0" stopTime="0.00" timeLoss="36.88" rerouteNo="0" devices="tripinfo_B19" vType="typeCar@B19" speedFactor="1.00" vaporized=""/>
    <tripinfo id="C20" depart="36.80" departLane="sc_0" departPos="5.10" departSpeed="10.00" departDelay="7.80" arrival="272.50" arrivalLane="cn_0" arrivalPos="992.80" arrivalSpeed="7.75" duration="235.70" routeLength="1994.90" waitingTime="0.00" waitingCount="0" stopTime="0.00" timeLoss="36.18" rerouteNo="0" devices="tripinfo_C20" vType="typeCar@C20" speedFactor="1.00" vaporized=""/>
    <tripinfo id="C21" depart="38.50" departLane="sc_0" departPos="5.10" departSpeed="10.00" departDelay="5.50" arrival="273.50" arrivalLane="cn_0" arrivalPos="992.80" arrivalSpeed="8.06" duration="235.00" routeLength="1994.90" waitingTime="0.00" waitingCount="0" stopTime="0.00" timeLoss="35.48" rerouteNo="0" devices="tripinfo_C21" vType="typeCar@C21" speedFactor="1.00" vaporized=""/>
    <tripinfo id="C22" depart="40.20" departLane="sc_0" departPos="5.10" departSpeed="10.00" departDelay="6.20" arrival="274.50" arrivalLane="cn_0" arrivalPos="992.80" arrivalSpeed="7.85" duration="234.30" routeLength="1994.90" waitingTime="0.00" waitingCount="0" stopTime="0.00" timeLoss="34.78" rerouteNo="0" devices="tripinfo_C22" vType="typeCar@C22" speedFactor="1.00" vaporized=""/>
    <tripinfo id="C23" depart="41.90" departLane="sc_0" departPos="5.10" departSpeed="10.00" departDelay="5.90" arrival="275.50" arrivalLane="cn_0" arrivalPos="992.80" arrivalSpeed="7.80" duration="233.60" routeLength="1994.90" waitingTime="0.00" waitingCount="0" stopTime="0.00" timeLoss="34.08" rerouteNo="0" devices="tripinfo_C23" vType="typeCar@C23" speedFactor="1.00" vaporized=""/>
    <tripinfo id="C24" depart="43.60" departLane="sc_0" departPos="5.10" departSpeed="10.00" departDelay="6.60" arrival="276.50" arrivalLane="cn_0" arrivalPos="992.80" arrivalSpeed="7.97" duration="232.90" routeLength="1994.90" waitingTime="0.00" waitingCount="0" stopTime="0.00" timeLoss="33.38" rerouteNo="0" devices="tripinfo_C24" vType="typeCar@C24" speedFactor="1.00" vaporized=""/>
    <tripinfo id="C25" depart="45.30" departLane="sc_0" departPos="5.10" departSpeed="10.00" departDelay="7.30" arrival="277.50" arrivalLane="cn_0" arrivalPos="992.80" arrivalSpeed="8.15" duration="232.20" routeLength="1994.90" waitingTime="0.00" waitingCount="0" stopTime="0.00" timeLoss="32.68" rerouteNo="0" devices="tripinfo_C25" vType="typeCar@C25" speedFactor="1.00" vaporized=""/>
    <tripinfo id="C26" depart="47.00" departLane="sc_0" departPos="5.10" departSpeed="10.00" departDelay="8.00" arrival="278.50" arrivalLane="cn_0" arrivalPos="992.80" arrivalSpeed="8.07" duration="231.50" routeLength="1994.90" waitingTime="0.00" waitingCount="0" stopTime="0.00" timeLoss="31.98" rerouteNo="0" devices="tripinfo_C26" vType="typeCar@C26" speedFactor="1.00" vaporized=""/>
    <tripinfo id="C27" depart="48.70" departLane="sc_0" departPos="5.10" departSpeed="10.00" departDelay="8.70" arrival="279.50" arrivalLane="cn_0" arrivalPos="992.80" arrivalSpeed="8.03" duration="230.80" routeLength="1994.90" waitingTime="0.00" waitingCount="0" stopTime="0.00" timeLoss="31.28" rerouteNo="0" devices="tripinfo_C27" vType="typeCar@C27" speedFactor="1.00" vaporized=""/>
    <tripinfo id="C28" depart="50.40" departLane="sc_0" departPos="5.10" departSpeed="10.00" departDelay="8.40" arrival="280.50" arrivalLane="cn_0" arrivalPos="992.80" arrivalSpeed="8.18" duration="230.10" routeLength="1994.90" waitingTime="0.00" waitingCount="0" stopTime="0.00" timeLoss="30.58" rerouteNo="0" devices="tripinfo_C28" vType="typeCar@C28" speedFactor="1.00" vaporized=""/>
    <tripinfo id="C29" depart="52.10" departLane="sc_0" departPos="5.10" departSpeed="10.00" departDelay="9.10" arrival="281.50" arrivalLane="cn_0" arrivalPos="992.80" arrivalSpeed="7.75" duration="229.40" routeLength="1994.90" waitingTime="0.00" waitingCount="0" stopTime="0.00" timeLoss="29.88" rerouteNo="0" devices="tripinfo_C29" vType="typeCar@C29" speedFactor="1.00" vaporized=""/>
    <tripinfo id="D30" depart="53.80" departLane="sc_0" departPos="5.10" departSpeed="10.00" departDelay="9.80" arrival="282.50" arrivalLane="cn_0" arrivalPos="992.80" arrivalSpeed="7.83" duration="228.70" routeLength="1994.90" waitingTime="0.00" waitingCount="0" stopTime="0.00" timeLoss="29.18" rerouteNo="0" devices="tripinfo_D30" vType="typeCar@D30" speedFactor="1.00" vaporized=""/>
    <tripinfo id="D31" depart="55.50" departLane="sc_0" departPos="5.10" departSpeed="10.00" departDelay="9.50" arrival="283.50" arrivalLane="cn_0" arrivalPos="992.80" arrivalSpeed="7.99" duration="228.00" routeLength="1994.90" waitingTime="0.00" waitingCount="0" stopTime="0.00" timeLoss="28.48" rerouteNo="0" devices="tripinfo_D31" vType="typeCar@D31" speedFactor="1.00" vaporized=""/>
    <tripinfo id="D32" depart="57.20" departLane="sc_0" departPos="5.10" departSpeed="10.00" departDelay="10.20" arrival="284.50" arrivalLane="cn_0" arrivalPos="992.80" arrivalSpeed="8.07" duration="227.30" routeLength="1994.90" waitingTime="0.00" waitingCount="0" stopTime="0.00" timeLoss="27.78" rerouteNo="0" devices="tripinfo_D32" vType="typeCar@D32" speedFactor="1.00" vaporized=""/>
    <tripinfo id="D33" depart="58.90" departLane="sc_0" departPos="5.10" departSpeed="10.00" departDelay="10.90" arrival="285.50" arrivalLane="cn_0" arrivalPos="992.80" arrivalSpeed="8.07" duration="226.60" routeLength="1994.90" waitingTime="0.00" waitingCount="0" stopTime="0.00" timeLoss="27.08" rerouteNo="0" devices="tripinfo_D33" vType="typeCar@D33" speedFactor="1.00" vaporized=""/>
    <tripinfo id="D34" depart="60.60" departLane="sc_0" departPos="5.10" departSpeed="10.00" departDelay="9.60" arrival="286.50" arrivalLane="cn_0" arrivalPos="992.80" arrivalSpeed="8.01" duration="225.90" routeLength="1994.90" waitingTime="0.00" waitingCount="0" stopTime="0.00" timeLoss="26.38" rerouteNo="0" devices="tripinfo_D34" vType="typeCar@D34" speedFactor="1.00" vaporized=""/>
    <tripinfo id="D35" depart="62.30" departLane="sc_0" departPos="5.10" departSpeed="10.00" departDelay="9.30" arrival="287.50" arrivalLane="cn_0" arrivalPos="992.80" arrivalSpeed="8.04" duration="225.20" routeLength="1994.90" waitingTime="0.00" waitingCount="0" stopTime="0.00" timeLoss="25.68" rerouteNo="0" devices="tripinfo_D35" vType="typeCar@D35" speedFactor="1.00" vaporized=""/>
    <tripinfo id="D36" depart="64.00" departLane="sc_0" departPos="5.10" departSpeed="10.00" departDelay="9.00" arrival="288.50" arrivalLane="cn_0" arrivalPos="992.80" arrivalSpeed="8.19" duration="224.50" routeLength="1994.90" waitingTime="0.00" waitingCount="0" stopTime="0.00" timeLoss="24.98" rerouteNo="0" devices="tripinfo_D36" vType="typeCar@D36" speedFactor="1.00" vaporized=""/>
    <tripinfo id="D37" depart="65.70" departLane="sc_0" departPos="5.10" departSpeed="10.00" departDelay="9.70" arrival="289.50" arrivalLane="cn_0" arrivalPos="992.80" arrivalSpeed="7.74" duration="223.80" routeLength="1994.90" waitingTime="0.00" waitingCount="0" stopTime="0.00" timeLoss="24.28" rerouteNo="0" devices="tripinfo_D37" vType="typeCar@D37" speedFactor="1.00" vaporized=""/>
    <tripinfo id="D38" depart="67.40" departLane="sc_0" departPos="5.10" departSpeed="10.00" departDelay="8.40" arrival="290.50" arrivalLane="cn_0" arrivalPos="992.80" arrivalSpeed="7.82" duration="223.10" routeLength="1994.90" waitingTime="0.00" waitingCount="0" stopTime="0.00" timeLoss="23.58" rerouteNo="0" devices="tripinfo_D38" vType="typeCar@D38" speedFactor="1.00" vaporized=""/>
    <tripinfo id="D39" depart="69.10" departLane="sc_0" departPos="5.10" departSpeed="10.00" departDelay="9.10" arrival="291.50" arrivalLane="cn_0" arrivalPos="992.80" arrivalSpeed="7.75" duration="222.40" routeLength="1994.90" waitingTime="0.00" waitingCount="0" stopTime="0.00" timeLoss="22.88" rerouteNo="0" devices="tripinfo_D39" vType="typeCar@D39" speedFactor="1.00" vaporized=""/>
    <tripinfo id="E40" depart="70.80" departLane="sc_0" departPos="5.10" departSpeed="10.00" departDelay="9.80" arrival="292.50" arrivalLane="cn_0" arrivalPos="992.80" arrivalSpeed="7.99" duration="221.70" routeLength="1994.90" waitingTime="0.00" waitingCount="0" stopTime="0.00" timeLoss="22.18" rerouteNo="0" devices="tripinfo_E40" vType="typeCar@E40" speedFactor="1.00" vaporized=""/>
    <tripinfo id="E41" depart="72.50" departLane="sc_0" departPos="5.10" departSpeed="10.00" departDelay="10.50" arrival="293.50" arrivalLane="cn_0" arrivalPos="992.80" arrivalSpeed="8.14" duration="221.00" routeLength="1994.90" waitingTime="0.00" waitingCount="0" stopTime="0.00" timeLoss="21.48" rerouteNo="0" devices="tripinfo_E41" vType="typeCar@E41" speedFactor="1.00" vaporized=""/>
    <tripinfo id="E42" depart="74.20" departLane="sc_0" departPos="5.10" departSpeed="10.00" departDelay="9.20" arrival="294.50" arrivalLane="cn_0" arrivalPos="992.80" arrivalSpeed="8.15" duration="220.30" routeLength="1994.90" waitingTime="0.00" waitingCount="0" stopTime="0.00" timeLoss="20.78" rerouteNo="0" devices="tripinfo_E42" vType="typeCar@E42" speedFactor="1.00" vaporized=""/>
    <tripinfo id="E43" depart="75.90" departLane="sc_0" departPos="5.10" departSpeed="10.00" departDelay="8.90" arrival="295.50" arrivalLane="cn_0" arrivalPos="992.80" arrivalSpeed="7.89" duration="219.60" routeLength="1994.90" waitingTime="0.00" waitingCount="0" stopTime="0.00" timeLoss="20.08" rerouteNo="0" devices="tripinfo_E43" vType="typeCar@E43" speedFactor="1.00" vaporized=""/>
    <tripinfo id="E44" depart="77.60" departLane="sc_0" departPos="5.10" departSpeed="10.00" departDelay="8.60" arrival="296.50" arrivalLane="cn_0" arrivalPos="992.80" arrivalSpeed="7.99" duration="218.90" routeLength="1994.90" waitingTime="0.00" waitingCount="0" stopTime="0.00" timeLoss="19.38" rerouteNo="0" devices="tripinfo_E44" vType="typeCar@E44" speedFactor="1.00" vaporized=""/>
    <tripinfo id="E45" depart="79.30" departLane="sc_0" departPos="5.10" departSpeed="10.00" departDelay="9.30" arrival="297.50" arrivalLane="cn_0" arrivalPos="992.80" arrivalSpeed="7.97" duration="218.20" routeLength="1994.90" waitingTime="0.00" waitingCount="0" stopTime="0.00" timeLoss="18.68" rerouteNo="0" devices="tripinfo_E45" vType="typeCar@E45" speedFactor="1.00" vaporized=""/>
    <tripinfo id="E46" depart="81.00" departLane="sc_0" departPos="5.10" departSpeed="10.00" departDelay="9.00" arrival="298.50" arrivalLane="cn_0" arrivalPos="992.80" arrivalSpeed="8.07" duration="217.50" routeLength="1994.90" waitingTime="0.00" waitingCount="0" stopTime="0.00" timeLoss="17.98" rerouteNo="0" devices="tripinfo_E46" vType="typeCar@E46" speedFactor="1.00" vaporized=""/>
    <tripinfo id="E47" depart="82.70" departLane="sc_0" departPos="5.10" departSpeed="10.00" departDelay="8.70" arrival="299.50" arrivalLane="cn_0" arrivalPos="992.80" arrivalSpeed="7.72" duration="216.80" routeLength="1994.90" waitingTime="0.00" waitingCount="0" stopTime="0.00" timeLoss="17.28" rerouteNo="0" devices="tripinfo_E47" vType="typeCar@E47" speedFactor="1.00" vaporized=""/>
    <tripinfo id="E48" depart="84.40" departLane="sc_0" departPos="5.10" departSpeed="10.00" departDelay="8.40" arrival="300.50" arrivalLane="cn_0" arrivalPos="992.80" arrivalSpeed="7.93" duration="216.10" routeLength="1994.90" waitingTime="0.00" waitingCount="0" stopTime="0.00" timeLoss="16.58" rerouteNo="0" devices="tripinfo_E48" vType="typeCar@E48" speedFactor="1.00" vaporized=""/>
    <tripinfo id="E49" depart="86.10" departLane="sc_0" departPos="5.10" departSpeed="10.00" departDelay="9.10" arrival="301.50" arrivalLane="cn_0" arrivalPos="992.80" arrivalSpeed="8.15" duration="215.40" routeLength="1994.90" waitingTime="0.00" waitingCount="0" stopTime="0.00" timeLoss="15.88" rerouteNo="0" devices="tripinfo_E49" vType="typeCar@E49" speedFactor="1.00" vaporized=""/>
    <tripinfo id="F50" depart="87.80" departLane="sc_0" departPos="5.10" departSpeed="10.00" departDelay="9.80" arrival="302.50" arrivalLane="cn_0" arrivalPos="992.80" arrivalSpeed="7.79" duration="214.70" routeLength="1994.90" waitingTime="0.00" waitingCount="0" stopTime="0.00" timeLoss="15.18" rerouteNo="0" devices="tripinfo_F50" vType="typeCar@F50" speedFactor="1.00" vaporized=""/>
    <tripinfo id="F51" depart="89.50" departLane="sc_0" departPos="5.10" departSpeed="10.00" departDelay="10.50" arrival="303.50" arrivalLane="cn_0" arrivalPos="992.80" arrivalSpeed="7.73" duration="214.00" routeLength="1994.90" waitingTime="0.00" waitingCount="0" stopTime="0.00" timeLoss="14.48" rerouteNo="0" devices="tripinfo_F51" vType="typeCar@F51" speedFactor="1.00" vaporized=""/>
    <tripinfo id="F52" depart="91.20" departLane="sc_0" departPos="5.10" departSpeed="10.00" departDelay="9.20" arrival="304.50" arrivalLane="cn_0" arrivalPos="992.80" arrivalSpeed="8.14" duration="213.30" routeLength="1994.90" waitingTime="0.00" waitingCount="0" stopTime="0.00" timeLoss="13.78" rerouteNo="0" devices="tripinfo_F52" vType="typeCar@F52" speedFactor="1.00" vaporized=""/>
    <tripinfo id="F53" depart="92.90" departLane="sc_0" departPos="5.10" departSpeed="10.00" departDelay="8.90" arrival="305.50" arrivalLane="cn_0" arrivalPos="992.80" arrivalSpeed="8.18" duration="212.60" routeLength="1994.90" waitingTime="0.00" waitingCount="0" stopTime="0.00" timeLoss="13.08" rerouteNo="0" devices="tripinfo_F53" vType="typeCar@F53" speedFactor="1.00" vaporized=""/>
    <tripinfo id="F54" depart="94.60" departLane="sc_0" departPos="5.10" departSpeed="10.00" departDelay="9.60" arrival="306.50" arrivalLane="cn_0" arrivalPos="992.80" arrivalSpeed="8.15" duration="211.90" routeLength="1994.90" waitingTime="0.00" waitingCount="0" stopTime="0.00" timeLoss="12.38" rerouteNo="0" devices="tripinfo_F54" vType="typeCar@F54" speedFactor="1.00" vaporized=""/>
    <tripinfo id="F55" depart="96.30" departLane="sc_0" departPos="5.10" departSpeed="10.00" departDelay="9.30" arrival="307.50" arrivalLane="cn_0" arrivalPos="992.80" arrivalSpeed="7.92" duration="211.20" routeLength="1994.90" waitingTime="0.00" waitingCount="0" stopTime="0.00" timeLoss="11.68" rerouteNo="0" devices="tripinfo_F55" vType="typeCar@F55" speedFactor="1.00" vaporized=""/>
    <tripinfo id="F56" depart="98.00" departLane="sc_0" departPos="5.10" departSpeed="10.00" departDelay="10.00" arrival="308.50" arrivalLane="cn_0" arrivalPos="992.80" arrivalSpeed="8.16" duration="210.50" routeLength="1994.90" waitingTime="0.00" waitingCount="0" stopTime="0.00" timeLoss="10.98" rerouteNo="0" devices="tripinfo_F56" vType="typeCar@F56" speedFactor="1.00" vaporized=""/>
    <tripinfo id="F57" depart="99.70" departLane="sc_0" departPos="5.10" departSpeed="10.00" departDelay="10.70" arrival="309.50" arrivalLane="cn_0" arrivalPos="992.80" arrivalSpeed="8.05" duration="209.80" routeLength="1994.90" waitingTime="0.00" waitingCount="0" stopTime="0.00" timeLoss="10.28" rerouteNo="0" devices="tripinfo_F57" vType="typeCar@F57" speedFactor="1.00" vaporized=""/>
    <tripinfo id="F58" depart="101.40" departLane="sc_0" departPos="5.10" departSpeed="10.00" departDelay="10.40" arrival="310.50" arrivalLane="cn_0" arrivalPos="992.80" arrivalSpeed="7.79" duration="209.10" routeLength="1994.90" waitingTime="0.00" waitingCount="0" stopTime="0.00" timeLoss="9.58" rerouteNo="0" devices="tripinfo_F58" vType="typeCar@F58" speedFactor="1.00" vaporized=""/>
    <tripinfo id="F59" depart="103.10" departLane="sc_0" departPos="5.10" departSpeed="10.00" departDelay="11.10" arrival="311.50" arrivalLane="cn_0" arrivalPos="992.80" arrivalSpeed="8.18" duration="208.40" routeLength="1994.90" waitingTime="0.00" waitingCount="0" stopTime="0.00" timeLoss="8.88" rerouteNo="0" devices="tripinfo_F59" vType="typeCar@F59" speedFactor="1.00" vaporized=""/>
    <tripinfo id="G60" depart="104.80" departLane="sc_0" departPos="5.10" departSpeed="10.00" departDelay="11.80" arrival="312.50" arrivalLane="cn_0" arrivalPos="992.80" arrivalSpeed="8.08" duration="207.70" routeLength="1994.90" waitingTime="0.00" waitingCount="0" stopTime="0.00" timeLoss="8.18" rerouteNo="0" devices="tripinfo_G60" vType="typeCar@G60" speedFactor="1.00" vaporized=""/>
    <tripinfo id="G61" depart="106.50" departLane="sc_0" departPos="5.10" departSpeed="10.00" departDelay="12.50" arrival="313.50" arrivalLane="cn_0" arrivalPos="992.80" arrivalSpeed="7.82" duration="207.00" routeLength="1994.90" waitingTime="0.00" waitingCount="0" stopTime="0.00" timeLoss="7.48" rerouteNo="0" devices="tripinfo_G61" vType="typeCar@G61" speedFactor="1.00" vaporized=""/>
    <tripinfo id="G62" depart="108.20" departLane="sc_0" departPos="5.10" departSpeed="10.00" departDelay="13.20" arrival="314.50" arrivalLane="cn_0" arrivalPos="992.80" arrivalSpeed="7.87" duration="206.30" routeLength="1994.90" waitingTime="0.00" waitingCount="0" stopTime="0.00" timeLoss="6.78" rerouteNo="0" devices="tripinfo_G62" vType="typeCar@G62" speedFactor="1.00" vaporized=""/>
    <tripinfo id="G63" depart="109.90" departLane="sc_0" departPos="5.10" departSpeed="10.00" departDelay="11.90" arrival="315.50" arrivalLane="cn_0" arrivalPos="992.80" arrivalSpeed="8.07" duration="205.60" routeLength="1994.90" waitingTime="0.00" waitingCount="0" stopTime="0.00" timeLoss="6.08" rerouteNo="0" devices="tripinfo_G63" vType="typeCar@G63" speedFactor="1.00" vaporized=""/>
</tripinfos>
