<?xml version="1.0" encoding="UTF-8"?>

<!-- generated on 2022-07-30 15:23:52 by Eclipse SUMO GUI Version 1.13.0
<configuration xmlns:xsi="http://www.w3.org/2001/XMLSchema-instance" xsi:noNamespaceSchemaLocation="http://sumo.dlr.de/xsd/sumoConfiguration.xsd">

    <input>
        <net-file value="net.net.xml"/>
        <route-files value="routes.rou.xml"/>
    </input>

    <output>
        <tripinfo-output value="raw_data/(3,2,0)tripinfo.xml"/>
    </output>

    <time>
        <begin value="0"/>
        <step-length value="0.1"/>
    </time>

    <processing>
        <collision.action value="warn"/>
        <collision.stoptime value="1"/>
        <collision.mingap-factor value="1"/>
    </processing>

    <report>
        <verbose value="false"/>
        <log value="log.txt"/>
        <duration-log.statistics value="true"/>
        <no-step-log value="true"/>
    </report>

    <traci_server>
        <remote-port value="11374"/>
    </traci_server>

    <gui_only>
        <tracker-interval value="0.1"/>
    </gui_only>

</configuration>
-->

<tripinfos xmlns:xsi="http://www.w3.org/2001/XMLSchema-instance" xsi:noNamespaceSchemaLocation="http://sumo.dlr.de/xsd/tripinfo_file.xsd">
    <tripinfo id="A0" depart="0.00" departLane="sc_0" departPos="5.10" departSpeed="10.00" departDelay="0.00" arrival="252.50" arrivalLane="cn_0" arrivalPos="992.80" arrivalSpeed="8.13" duration="252.50" routeLength="1994.90" waitingTime="0.00" waitingCount="0" stopTime="0.00" timeLoss="52.98" rerouteNo="0" devices="tripinfo_A0" vType="typeCar@A0" speedFactor="1.00" vaporized=""/>
    <tripinfo id="A1" depart="1.00" departLane="wc_0" departPos="5.10" departSpeed="10.00" departDelay="0.00" arrival="254.50" arrivalLane="ce_0" arrivalPos="992.80" arrivalSpeed="8.04" duration="253.50" routeLength="1994.90" waitingTime="0.00" waitingCount="0" stopTime="0.00" timeLoss="53.98" rerouteNo="0" devices="tripinfo_A1" vType="typeCar@A1" speedFactor="1.00" vaporized=""/>
    <tripinfo id="A2" depart="1.70" departLane="sc_0" departPos="5.10" departSpeed="10.00" departDelay="0.70" arrival="256.50" arrivalLane="cn_0" arrivalPos="992.80" arrivalSpeed="8.15" duration="254.80" routeLength="1994.90" waitingTime="0.00" waitingCount="0" stopTime="0.00" timeLoss="55.28" rerouteNo="0" devices="tripinfo_A2" vType="typeCar@A2" speedFactor="1.00" vaporized=""/>
    <tripinfo id="A3" depart="3.40" departLane="sc_0" departPos="5.10" departSpeed="10.00" departDelay="0.40" arrival="257.50" arrivalLane="cn_0" arrivalPos="992.80" arrivalSpeed="8.03" duration="254.10" routeLength="1994.90" waitingTime="0.00" waitingCount="0" stopTime="0.00" timeLoss="54.58" rerouteNo="0" devices="tripinfo_A3" vType="typeCar@A3" speedFactor="1.00" vaporized=""/>
    <tripinfo id="A4" depart="6.50" departLane="sc_0" departPos="5.10" departSpeed="10.00" departDelay="2.50" arrival="258.50" arrivalLane="cn_0" arrivalPos="992.80" arrivalSpeed="8.09" duration="252.00" routeLength="1994.90" waitingTime="0.00" waitingCount="0" stopTime="0.00" timeLoss="52.48" rerouteNo="0" devices="tripinfo_A4" vType="typeCar@A4" speedFactor="1.00" vaporized=""/>
    <tripinfo id="A5" depart="5.00" departLane="wc_0" departPos="5.10" departSpeed="10.00" departDelay="0.00" arrival="260.50" arrivalLane="ce_0" arrivalPos="992.80" arrivalSpeed="8.19" duration="255.50" routeLength="1994.90" waitingTime="0.00" waitingCount="0" stopTime="0.00" timeLoss="55.98" rerouteNo="0" devices="tripinfo_A5" vType="typeCar@A5" speedFactor="1.00" vaporized=""/>
    <tripinfo id="A6" depart="9.40" departLane="sc_0" departPos="5.10" departSpeed="10.00" departDelay="4.40" arrival="262.50" arrivalLane="cn_0" arrivalPos="992.80" arrivalSpeed="7.85" duration="253.10" routeLength="1994.90" waitingTime="0.00" waitingCount="0" stopTime="0.00" timeLoss="53.58" rerouteNo="0" devices="tripinfo_A6" vType="typeCar@A6" speedFactor="1.00" vaporized=""/>
    <tripinfo id="A7" depart="6.70" departLane="wc_0" departPos="5.10" departSpeed="10.00" departDelay="0.70" arrival="264.50" arrivalLane="ce_0" arrivalPos="992.80" arrivalSpeed="7.96" duration="257.80" routeLength="1994.90" waitingTime="0.00" waitingCount="0" stopTime="0.00" timeLoss="58.28" rerouteNo="0" devices="tripinfo_A7" vType="typeCar@A7" speedFactor="1.00" vaporized=""/>
    <tripinfo id="A8" depart="12.30" departLane="sc_0" departPos="5.10" departSpeed="10.00" departDelay="6.30" arrival="266.50" arrivalLane="cn_0" arrivalPos="992.80" arrivalSpeed="8.18" duration="254.20" routeLength="1994.90" waitingTime="0.00" waitingCount="0" stopTime="0.00" timeLoss="54.68" rerouteNo="0" devices="tripinfo_A8" vType="typeCar@A8" speedFactor="1.00" vaporized=""/>
    <tripinfo id="A9" depart="15.10" departLane="sc_0" departPos="5.10" departSpeed="10.00" departDelay="8.10" arrival="267.50" arrivalLane="cn_0" arrivalPos="992.80" arrivalSpeed="7.84" duration="252.40" routeLength="1994.90" waitingTime="0.00" waitingCount="0" stopTime="0.00" timeLoss="52.88" rerouteNo="0" devices="tripinfo_A9" vType="typeCar@A9" speedFactor="1.00" vaporized=""/>
    <tripinfo id="B10" depart="8.60" departLane="wc_0" departPos="5.10" departSpeed="10.00" departDelay="0.60" arrival="269.50" arrivalLane="ce_0" arrivalPos="992.80" arrivalSpeed="7.80" duration="260.90" routeLength="1994.90" waitingTime="0.00" waitingCount="0" stopTime="0.00" timeLoss="61.38" rerouteNo="0" devices="tripinfo_B10" vType="typeCar@B10" speedFactor="1.00" vaporized=""/>
    <tripinfo id="B11" depart="18.00" departLane="sc_0" departPos="5.10" departSpeed="10.00" departDelay="10.00" arrival="271.50" arrivalLane="cn_0" arrivalPos="992.80" arrivalSpeed="8.05" duration="253.50" routeLength="1994.90" waitingTime="0.00" waitingCount="0" stopTime="0.00" timeLoss="53.98" rerouteNo="0" devices="tripinfo_B11" vType="typeCar@B11" speedFactor="1.00" vaporized=""/>
    <tripinfo id="B12" depart="20.90" departLane="sc_0" departPos="5.10" departSpeed="10.00" departDelay="11.90" arrival="272.50" arrivalLane="cn_0" arrivalPos="992.80" arrivalSpeed="7.99" duration="251.60" routeLength="1994.90" waitingTime="0.00" waitingCount="0" stopTime="0.00" timeLoss="52.08" rerouteNo="0" devices="tripinfo_B12" vType="typeCar@B12" speedFactor="1.00" vaporized=""/>
    <tripinfo id="B13" depart="11.00" departLane="wc_0" departPos="5.10" departSpeed="10.00" departDelay="0.00" arrival="274.50" arrivalLane="ce_0" arrivalPos="992.80" arrivalSpeed="7.88" duration="263.50" routeLength="1994.90" waitingTime="0.00" waitingCount="0" stopTime="0.00" timeLoss="63.98" rerouteNo="0" devices="tripinfo_B13" vType="typeCar@B13" speedFactor="1.00" vaporized=""/>
    <tripinfo id="B14" depart="23.80" departLane="sc_0" departPos="5.10" departSpeed="10.00" departDelay="12.80" arrival="276.50" arrivalLane="cn_0" arrivalPos="992.80" arrivalSpeed="7.77" duration="252.70" routeLength="1994.90" waitingTime="0.00" waitingCount="0" stopTime="0.00" timeLoss="53.18" rerouteNo="0" devices="tripinfo_B14" vType="typeCar@B14" speedFactor="1.00" vaporized=""/>
    <tripinfo id="B15" depart="26.70" departLane="sc_0" departPos="5.10" departSpeed="10.00" departDelay="14.70" arrival="277.50" arrivalLane="cn_0" arrivalPos="992.80" arrivalSpeed="7.77" duration="250.80" routeLength="1994.90" waitingTime="0.00" waitingCount="0" stopTime="0.00" timeLoss="51.28" rerouteNo="0" devices="tripinfo_B15" vType="typeCar@B15" speedFactor="1.00" vaporized=""/>
    <tripinfo id="B16" depart="13.30" departLane="wc_0" departPos="5.10" departSpeed="10.00" departDelay="0.30" arrival="279.50" arrivalLane="ce_0" arrivalPos="992.80" arrivalSpeed="8.16" duration="266.20" routeLength="1994.90" waitingTime="0.00" waitingCount="0" stopTime="0.00" timeLoss="66.68" rerouteNo="0" devices="tripinfo_B16" vType="typeCar@B16" speedFactor="1.00" vaporized=""/>
    <tripinfo id="B17" depart="29.50" departLane="sc_0" departPos="5.10" departSpeed="10.00" departDelay="16.50" arrival="281.50" arrivalLane="cn_0" arrivalPos="992.80" arrivalSpeed="8.19" duration="252.00" routeLength="1994.90" waitingTime="0.00" waitingCount="0" stopTime="0.00" timeLoss="52.48" rerouteNo="0" devices="tripinfo_B17" vType="typeCar@B17" speedFactor="1.00" vaporized=""/>
    <tripinfo id="B18" depart="17.00" departLane="wc_0" departPos="5.10" departSpeed="10.00" departDelay="0.00" arrival="283.50" arrivalLane="ce_0" arrivalPos="992.80" arrivalSpeed="7.98" duration="266.50" routeLength="1994.90" waitingTime="0.00" waitingCount="0" stopTime="0.00" timeLoss="66.98" rerouteNo="0" devices="tripinfo_B18" vType="typeCar@B18" speedFactor="1.00" vaporized=""/>
    <tripinfo id="B19" depart="32.40" departLane="sc_0" departPos="5.10" departSpeed="10.00" departDelay="15.40" arrival="285.50" arrivalLane="cn_0" arrivalPos="992.80" arrivalSpeed="7.95" duration="253.10" routeLength="1994.90" waitingTime="0.00" waitingCount="0" stopTime="0.00" timeLoss="53.58" rerouteNo="0" devices="tripinfo_B19" vType="typeCar@B19" speedFactor="1.00" vaporized=""/>
    <tripinfo id="C20" depart="35.00" departLane="sc_0" departPos="5.10" departSpeed="10.00" departDelay="16.00" arrival="286.50" arrivalLane="cn_0" arrivalPos="992.80" arrivalSpeed="7.89" duration="251.50" routeLength="1994.90" waitingTime="0.00" waitingCount="0" stopTime="0.00" timeLoss="51.98" rerouteNo="0" devices="tripinfo_C20" vType="typeCar@C20" speedFactor="1.00" vaporized=""/>
    <tripinfo id="C21" depart="37.90" departLane="sc_0" departPos="5.10" departSpeed="10.00" departDelay="17.90" arrival="287.50" arrivalLane="cn_0" arrivalPos="992.80" arrivalSpeed="7.78" duration="249.60" routeLength="1994.90" waitingTime="0.00" waitingCount="0" stopTime="0.00" timeLoss="50.08" rerouteNo="0" devices="tripinfo_C21" vType="typeCar@C21" speedFactor="1.00" vaporized=""/>
    <tripinfo id="C22" depart="21.00" departLane="wc_0" departPos="5.10" departSpeed="10.00" departDelay="0.00" arrival="289.50" arrivalLane="ce_0" arrivalPos="992.80" arrivalSpeed="8.06" duration="268.50" routeLength="1994.90" waitingTime="0.00" waitingCount="0" stopTime="0.00" timeLoss="68.98" rerouteNo="0" devices="tripinfo_C22" vType="typeCar@C22" speedFactor="1.00" vaporized=""/>
    <tripinfo id="C23" depart="40.80" departLane="sc_0" departPos="5.10" departSpeed="10.00" departDelay="19.80" arrival="291.50" arrivalLane="cn_0" arrivalPos="992.80" arrivalSpeed="7.88" duration="250.70" routeLength="1994.90" waitingTime="0.00" waitingCount="0" stopTime="0.00" timeLoss="51.18" rerouteNo="0" devices="tripinfo_C23" vType="typeCar@C23" speedFactor="1.00" vaporized=""/>
    <tripinfo id="C24" depart="22.70" departLane="wc_0" departPos="5.10" departSpeed="10.00" departDelay="0.70" arrival="293.50" arrivalLane="ce_0" arrivalPos="992.80" arrivalSpeed="7.99" duration="270.80" routeLength="1994.90" waitingTime="0.00" waitingCount="0" stopTime="0.00" timeLoss="71.28" rerouteNo="0" devices="tripinfo_C24" vType="typeCar@C24" speedFactor="1.00" vaporized=""/>
    <tripinfo id="C25" depart="43.10" departLane="sc_0" departPos="5.10" departSpeed="10.00" departDelay="21.10" arrival="295.50" arrivalLane="cn_0" arrivalPos="992.80" arrivalSpeed="7.96" duration="252.40" routeLength="1994.90" waitingTime="0.00" waitingCount="0" stopTime="0.00" timeLoss="52.88" rerouteNo="0" devices="tripinfo_C25" vType="typeCar@C25" speedFactor="1.00" vaporized=""/>
    <tripinfo id="C26" depart="24.50" departLane="wc_0" departPos="5.10" departSpeed="10.00" departDelay="1.50" arrival="297.50" arrivalLane="ce_0" arrivalPos="992.80" arrivalSpeed="7.78" duration="273.00" routeLength="1994.90" waitingTime="0.00" waitingCount="0" stopTime="0.00" timeLoss="73.48" rerouteNo="0" devices="tripinfo_C26" vType="typeCar@C26" speedFactor="1.00" vaporized=""/>
    <tripinfo id="C27" depart="44.80" departLane="sc_0" departPos="5.10" departSpeed="10.00" departDelay="21.80" arrival="299.50" arrivalLane="cn_0" arrivalPos="992.80" arrivalSpeed="7.73" duration="254.70" routeLength="1994.90" waitingTime="0.00" waitingCount="0" stopTime="0.00" timeLoss="55.18" rerouteNo="0" devices="tripinfo_C27" vType="typeCar@C27" speedFactor="1.00" vaporized=""/>
    <tripinfo id="C28" depart="47.80" departLane="sc_0" departPos="5.10" departSpeed="10.00" departDelay="23.80" arrival="300.50" arrivalLane="cn_0" arrivalPos="992.80" arrivalSpeed="8.02" duration="252.70" routeLength="1994.90" waitingTime="0.00" waitingCount="0" stopTime="0.00" timeLoss="53.18" rerouteNo="0" devices="tripinfo_C28" vType="typeCar@C28" speedFactor="1.00" vaporized=""/>
    <tripinfo id="C29" depart="26.70" departLane="wc_0" departPos="5.10" departSpeed="10.00" departDelay="1.70" arrival="302.50" arrivalLane="ce_0" arrivalPos="992.80" arrivalSpeed="7.77" duration="275.80" routeLength="1994.90" waitingTime="0.00" waitingCount="0" stopTime="0.00" timeLoss="76.28" rerouteNo="0" devices="tripinfo_C29" vType="typeCar@C29" speedFactor="1.00" vaporized=""/>
    <tripinfo id="D30" depart="50.70" departLane="sc_0" departPos="5.10" departSpeed="10.00" departDelay="25.70" arrival="304.50" arrivalLane="cn_0" arrivalPos="992.80" arrivalSpeed="8.11" duration="253.80" routeLength="1994.90" waitingTime="0.00" waitingCount="0" stopTime="0.00" timeLoss="54.28" rerouteNo="0" devices="tripinfo_D30" vType="typeCar@D30" speedFactor="1.00" vaporized=""/>
    <tripinfo id="D31" depart="29.00" departLane="wc_0" departPos="5.10" departSpeed="10.00" departDelay="3.00" arrival="306.50" arrivalLane="ce_0" arrivalPos="992.80" arrivalSpeed="7.86" duration="277.50" routeLength="1994.90" waitingTime="0.00" waitingCount="0" stopTime="0.00" timeLoss="77.98" rerouteNo="0" devices="tripinfo_D31" vType="typeCar@D31" speedFactor="1.00" vaporized=""/>
    <tripinfo id="D32" depart="31.40" departLane="wc_0" departPos="5.10" departSpeed="10.00" departDelay="3.40" arrival="307.50" arrivalLane="ce_0" arrivalPos="992.80" arrivalSpeed="8.03" duration="276.10" routeLength="1994.90" waitingTime="0.00" waitingCount="0" stopTime="0.00" timeLoss="76.58" rerouteNo="0" devices="tripinfo_D32" vType="typeCar@D32" speedFactor="1.00" vaporized=""/>
    <tripinfo id="D33" depart="33.80" departLane="wc_0" departPos="5.10" departSpeed="10.00" departDelay="4.80" arrival="308.50" arrivalLane="ce_0" arrivalPos="992.80" arrivalSpeed="8.13" duration="274.70" routeLength="1994.90" waitingTime="0.00" waitingCount="0" stopTime="0.00" timeLoss="75.18" rerouteNo="0" devices="tripinfo_D33" vType="typeCar@D33" speedFactor="1.00" vaporized=""/>
    <tripinfo id="D34" depart="53.60" departLane="sc_0" departPos="5.10" departSpeed="10.00" departDelay="24.60" arrival="310.50" arrivalLane="cn_0" arrivalPos="992.80" arrivalSpeed="8.15" duration="256.90" routeLength="1994.90" waitingTime="0.00" waitingCount="0" stopTime="0.00" timeLoss="57.38" rerouteNo="0" devices="tripinfo_D34" vType="typeCar@D34" speedFactor="1.00" vaporized=""/>
    <tripinfo id="D35" depart="36.20" departLane="wc_0" departPos="5.10" departSpeed="10.00" departDelay="3.20" arrival="312.50" arrivalLane="ce_0" arrivalPos="992.80" arrivalSpeed="7.82" duration="276.30" routeLength="1994.90" waitingTime="0.00" waitingCount="0" stopTime="0.00" timeLoss="76.78" rerouteNo="0" devices="tripinfo_D35" vType="typeCar@D35" speedFactor="1.00" vaporized=""/>
    <tripinfo id="D36" depart="56.50" departLane="sc_0" departPos="5.10" departSpeed="10.00" departDelay="23.50" arrival="314.50" arrivalLane="cn_0" arrivalPos="992.80" arrivalSpeed="7.90" duration="258.00" routeLength="1994.90" waitingTime="0.00" waitingCount="0" stopTime="0.00" timeLoss="58.48" rerouteNo="0" devices="tripinfo_D36" vType="typeCar@D36" speedFactor="1.00" vaporized=""/>
    <tripinfo id="D37" depart="38.60" departLane="wc_0" departPos="5.10" departSpeed="10.00" departDelay="4.60" arrival="316.50" arrivalLane="ce_0" arrivalPos="992.80" arrivalSpeed="8.17" duration="277.90" routeLength="1994.90" waitingTime="0.00" waitingCount="0" stopTime="0.00" timeLoss="78.38" rerouteNo="0" devices="tripinfo_D37" vType="typeCar@D37" speedFactor="1.00" vaporized=""/>
    <tripinfo id="D38" depart="59.30" departLane="sc_0" departPos="5.10" departSpeed="10.00" departDelay="25.30" arrival="318.50" arrivalLane="cn_0" arrivalPos="992.80" arrivalSpeed="8.15" duration="259.20" routeLength="1994.90" waitingTime="0.00" waitingCount="0" stopTime="0.00" timeLoss="59.68" rerouteNo="0" devices="tripinfo_D38" vType="typeCar@D38" speedFactor="1.00" vaporized=""/>
    <tripinfo id="D39" depart="41.10" departLane="wc_0" departPos="5.10" departSpeed="10.00" departDelay="6.10" arrival="320.50" arrivalLane="ce_0" arrivalPos="992.80" arrivalSpeed="8.14" duration="279.40" routeLength="1994.90" waitingTime="0.00" waitingCount="0" stopTime="0.00" timeLoss="79.88" rerouteNo="0" devices="tripinfo_D39" vType="typeCar@D39" speedFactor="1.00" vaporized=""/>
    <tripinfo id="E40" depart="62.20" departLane="sc_0" departPos="5.10" departSpeed="10.00" departDelay="26.20" arrival="322.50" arrivalLane="cn_0" arrivalPos="992.80" arrivalSpeed="8.11" duration="260.30" routeLength="1994.90" waitingTime="0.00" waitingCount="0" stopTime="0.00" timeLoss="60.78" rerouteNo="0" devices="tripinfo_E40" vType="typeCar@E40" speedFactor="1.00" vaporized=""/>
    <tripinfo id="E41" depart="65.10" departLane="sc_0" departPos="5.10" departSpeed="10.00" departDelay="28.10" arrival="323.50" arrivalLane="cn_0" arrivalPos="992.80" arrivalSpeed="8.08" duration="258.40" routeLength="1994.90" waitingTime="0.00" waitingCount="0" stopTime="0.00" timeLoss="58.88" rerouteNo="0" devices="tripinfo_E41" vType="typeCar@E41" speedFactor="1.00" vaporized=""/>
    <tripinfo id="E42" depart="68.00" departLane="sc_0" departPos="5.10" departSpeed="10.00" departDelay="30.00" arrival="324.50" arrivalLane="cn_0" arrivalPos="992.80" arrivalSpeed="7.94" duration="256.50" routeLength="1994.90" waitingTime="0.00" waitingCount="0" stopTime="0.00" timeLoss="56.98" rerouteNo="0" devices="tripinfo_E42" vType="typeCar@E42" speedFactor="1.00" vaporized=""/>
    <tripinfo id="E43" depart="43.50" departLane="wc_0" departPos="5.10" departSpeed="10.00" departDelay="4.50" arrival="326.50" arrivalLane="ce_0" arrivalPos="992.80" arrivalSpeed="7.93" duration="283.00" routeLength="1994.90" waitingTime="0.00" waitingCount="0" stopTime="0.00" timeLoss="83.48" rerouteNo="0" devices="tripinfo_E43" vType="typeCar@E43" speedFactor="1.00" vaporized=""/>
    <tripinfo id="E44" depart="70.80" departLane="sc_0" departPos="5.10" departSpeed="10.00" departDelay="31.80" arrival="328.50" arrivalLane="cn_0" arrivalPos="992.80" arrivalSpeed="7.85" duration="257.70" routeLength="1994.90" waitingTime="0.00" waitingCount="0" stopTime="0.00" timeLoss="58.18" rerouteNo="0" devices="tripinfo_E44" vType="typeCar@E44" speedFactor="1.00" vaporized=""/>
    <tripinfo id="E45" depart="73.70" departLane="sc_0" departPos="5.10" departSpeed="10.00" departDelay="33.70" arrival="329.50" arrivalLane="cn_0" arrivalPos="992.80" arrivalSpeed="8.18" duration="255.80" routeLength="1994.90" waitingTime="0.00" waitingCount="0" stopTime="0.00" timeLoss="56.28" rerouteNo="0" devices="tripinfo_E45" vType="typeCar@E45" speedFactor="1.00" vaporized=""/>
    <tripinfo id="E46" depart="46.00" departLane="wc_0" departPos="5.10" departSpeed="10.00" departDelay="4.00" arrival="331.50" arrivalLane="ce_0" arrivalPos="992.80" arrivalSpeed="8.12" duration="285.50" routeLength="1994.90" waitingTime="0.00" waitingCount="0" stopTime="0.00" timeLoss="85.98" rerouteNo="0" devices="tripinfo_E46" vType="typeCar@E46" speedFactor="1.00" vaporized=""/>
    <tripinfo id="E47" depart="76.60" departLane="sc_0" departPos="5.10" departSpeed="10.00" departDelay="34.60" arrival="333.50" arrivalLane="cn_0" arrivalPos="992.80" arrivalSpeed="7.88" duration="256.90" routeLength="1994.90" waitingTime="0.00" waitingCount="0" stopTime="0.00" timeLoss="57.38" rerouteNo="0" devices="tripinfo_E47" vType="typeCar@E47" speedFactor="1.00" vaporized=""/>
    <tripinfo id="E48" depart="79.50" departLane="sc_0" departPos="5.10" departSpeed="10.00" departDelay="36.50" arrival="334.50" arrivalLane="cn_0" arrivalPos="992.80" arrivalSpeed="8.13" duration="255.00" routeLength="1994.90" waitingTime="0.00" waitingCount="0" stopTime="0.00" timeLoss="55.48" rerouteNo="0" devices="tripinfo_E48" vType="typeCar@E48" speedFactor="1.00" vaporized=""/>
    <tripinfo id="E49" depart="48.50" departLane="wc_0" departPos="5.10" departSpeed="10.00" departDelay="4.50" arrival="336.50" arrivalLane="ce_0" arrivalPos="992.80" arrivalSpeed="8.20" duration="288.00" routeLength="1994.90" waitingTime="0.00" waitingCount="0" stopTime="0.00" timeLoss="88.48" rerouteNo="0" devices="tripinfo_E49" vType="typeCar@E49" speedFactor="1.00" vaporized=""/>
    <tripinfo id="F50" depart="82.30" departLane="sc_0" departPos="5.10" departSpeed="10.00" departDelay="38.30" arrival="338.50" arrivalLane="cn_0" arrivalPos="992.80" arrivalSpeed="8.11" duration="256.20" routeLength="1994.90" waitingTime="0.00" waitingCount="0" stopTime="0.00" timeLoss="56.68" rerouteNo="0" devices="tripinfo_F50" vType="typeCar@F50" speedFactor="1.00" vaporized=""/>
    <tripinfo id="F51" depart="51.00" departLane="wc_0" departPos="5.10" departSpeed="10.00" departDelay="6.00" arrival="340.50" arrivalLane="ce_0" arrivalPos="992.80" arrivalSpeed="7.84" duration="289.50" routeLength="1994.90" waitingTime="0.00" waitingCount="0" stopTime="0.00" timeLoss="89.98" rerouteNo="0" devices="tripinfo_F51" vType="typeCar@F51" speedFactor="1.00" vaporized=""/>
    <tripinfo id="F52" depart="85.20" departLane="sc_0" departPos="5.10" departSpeed="10.00" departDelay="39.20" arrival="342.50" arrivalLane="cn_0" arrivalPos="992.80" arrivalSpeed="8.15" duration="257.30" routeLength="1994.90" waitingTime="0.00" waitingCount="0" stopTime="0.00" timeLoss="57.78" rerouteNo="0" devices="tripinfo_F52" vType="typeCar@F52" speedFactor="1.00" vaporized=""/>
    <tripinfo id="F53" depart="53.50" departLane="wc_0" departPos="5.10" departSpeed="10.00" departDelay="6.50" arrival="344.50" arrivalLane="ce_0" arrivalPos="992.80" arrivalSpeed="7.93" duration="291.00" routeLength="1994.90" waitingTime="0.00" waitingCount="0" stopTime="0.00" timeLoss="91.48" rerouteNo="0" devices="tripinfo_F53" vType="typeCar@F53" speedFactor="1.00" vaporized=""/>
    <tripinfo id="F54" depart="88.10" departLane="sc_0" departPos="5.10" departSpeed="10.00" departDelay="41.10" arrival="346.50" arrivalLane="cn_0" arrivalPos="992.80" arrivalSpeed="8.03" duration="258.40" routeLength="1994.90" waitingTime="0.00" waitingCount="0" stopTime="0.00" timeLoss="58.88" rerouteNo="0" devices="tripinfo_F54" vType="typeCar@F54" speedFactor="1.00" vaporized=""/>
    <tripinfo id="F55" depart="91.00" departLane="sc_0" departPos="5.10" departSpeed="10.00" departDelay="43.00" arrival="347.50" arrivalLane="cn_0" arrivalPos="992.80" arrivalSpeed="8.08" duration="256.50" routeLength="1994.90" waitingTime="0.00" waitingCount="0" stopTime="0.00" timeLoss="56.98" rerouteNo="0" devices="tripinfo_F55" vType="typeCar@F55" speedFactor="1.00" vaporized=""/>
    <tripinfo id="F56" depart="56.00" departLane="wc_0" departPos="5.10" departSpeed="10.00" departDelay="6.00" arrival="349.50" arrivalLane="ce_0" arrivalPos="992.80" arrivalSpeed="8.03" duration="293.50" routeLength="1994.90" waitingTime="0.00" waitingCount="0" stopTime="0.00" timeLoss="93.98" rerouteNo="0" devices="tripinfo_F56" vType="typeCar@F56" speedFactor="1.00" vaporized=""/>
    <tripinfo id="F57" depart="93.80" departLane="sc_0" departPos="5.10" departSpeed="10.00" departDelay="42.80" arrival="351.50" arrivalLane="cn_0" arrivalPos="992.80" arrivalSpeed="8.17" duration="257.70" routeLength="1994.90" waitingTime="0.00" waitingCount="0" stopTime="0.00" timeLoss="58.18" rerouteNo="0" devices="tripinfo_F57" vType="typeCar@F57" speedFactor="1.00" vaporized=""/>
    <tripinfo id="F58" depart="58.50" departLane="wc_0" departPos="5.10" departSpeed="10.00" departDelay="6.50" arrival="353.50" arrivalLane="ce_0" arrivalPos="992.80" arrivalSpeed="7.80" duration="295.00" routeLength="1994.90" waitingTime="0.00" waitingCount="0" stopTime="0.00" timeLoss="95.48" rerouteNo="0" devices="tripinfo_F58" vType="typeCar@F58" speedFactor="1.00" vaporized=""/>
    <tripinfo id="F59" depart="61.00" departLane="wc_0" departPos="5.10" departSpeed="10.00" departDelay="8.00" arrival="354.50" arrivalLane="ce_0" arrivalPos="992.80" arrivalSpeed="7.74" duration="293.50" routeLength="1994.90" waitingTime="0.00" waitingCount="0" stopTime="0.00" timeLoss="93.98" rerouteNo="0" devices="tripinfo_F59" vType="typeCar@F59" speedFactor="1.00" vaporized=""/>
    <tripinfo id="G60" depart="96.70" departLane="sc_0" departPos="5.10" departSpeed="10.00" departDelay="43.70" arrival="356.50" arrivalLane="cn_0" arrivalPos="992.80" arrivalSpeed="7.92" duration="259.80" routeLength="1994.90" waitingTime="0.00" waitingCount="0" stopTime="0.00" timeLoss="60.28" rerouteNo="0" devices="tripinfo_G60" vType="typeCar@G60" speedFactor="1.00" vaporized=""/>
    <tripinfo id="G61" depart="99.60" departLane="sc_0" departPos="5.10" departSpeed="10.00" departDelay="44.60" arrival="357.50" arrivalLane="cn_0" arrivalPos="992.80" arrivalSpeed="7.95" duration="257.90" routeLength="1994.90" waitingTime="0.00" waitingCount="0" stopTime="0.00" timeLoss="58.38" rerouteNo="0" devices="tripinfo_G61" vType="typeCar@G61" speedFactor="1.00" vaporized=""/>
    <tripinfo id="G62" depart="102.50" departLane="sc_0" departPos="5.10" departSpeed="10.00" departDelay="46.50" arrival="358.50" arrivalLane="cn_0" arrivalPos="992.80" arrivalSpeed="7.90" duration="256.00" routeLength="1994.90" waitingTime="0.00" waitingCount="0" stopTime="0.00" timeLoss="56.48" rerouteNo="0" devices="tripinfo_G62" vType="typeCar@G62" speedFactor="1.00" vaporized=""/>
    <tripinfo id="G63" depart="63.50" departLane="wc_0" departPos="5.10" departSpeed="10.00" departDelay="5.50" arrival="360.50" arrivalLane="ce_0" arrivalPos="992.80" arrivalSpeed="8.16" duration="297.00" routeLength="1994.90" waitingTime="0.00" waitingCount="0" stopTime="0.00" timeLoss="97.48" rerouteNo="0" devices="tripinfo_G63" vType="typeCar@G63" speedFactor="1.00" vaporized=""/>
    <tripinfo id="G64" depart="105.30" departLane="sc_0" departPos="5.10" departSpeed="10.00" departDelay="46.30" arrival="362.50" arrivalLane="cn_0" arrivalPos="992.80" arrivalSpeed="7.83" duration="257.20" routeLength="1994.90" waitingTime="0.00" waitingCount="0" stopTime="0.00" timeLoss="57.68" rerouteNo="0" devices="tripinfo_G64" vType="typeCar@G64" speedFactor="1.00" vaporized=""/>
    <tripinfo id="G65" depart="108.20" departLane="sc_0" departPos="5.10" departSpeed="10.00" departDelay="48.20" arrival="363.50" arrivalLane="cn_0" arrivalPos="992.80" arrivalSpeed="7.90" duration="255.30" routeLength="1994.90" waitingTime="0.00" waitingCount="0" stopTime="0.00" timeLoss="55.78" rerouteNo="0" devices="tripinfo_G65" vType="typeCar@G65" speedFactor="1.00" vaporized=""/>
    <tripinfo id="G66" depart="111.10" departLane="sc_0" departPos="5.10" departSpeed="10.00" departDelay="50.10" arrival="364.50" arrivalLane="cn_0" arrivalPos="992.80" arrivalSpeed="7.83" duration="253.40" routeLength="1994.90" waitingTime="0.00" waitingCount="0" stopTime="0.00" timeLoss="53.88" rerouteNo="0" devices="tripinfo_G66" vType="typeCar@G66" speedFactor="1.00" vaporized=""/>
    <tripinfo id="G67" depart="66.00" departLane="wc_0" departPos="5.10" departSpeed="10.00" departDelay="4.00" arrival="366.50" arrivalLane="ce_0" arrivalPos="992.80" arrivalSpeed="7.94" duration="300.50" routeLength="1994.90" waitingTime="0.00" waitingCount="0" stopTime="0.00" timeLoss="100.98" rerouteNo="0" devices="tripinfo_G67" vType="typeCar@G67" speedFactor="1.00" vaporized=""/>
    <tripinfo id="G68" depart="114.00" departLane="sc_0" departPos="5.10" departSpeed="10.00" departDelay="52.00" arrival="368.50" arrivalLane="cn_0" arrivalPos="992.80" arrivalSpeed="8.04" duration="254.50" routeLength="1994.90" waitingTime="0.00" waitingCount="0" stopTime="0.00" timeLoss="54.98" rerouteNo="0" devices="tripinfo_G68" vType="typeCar@G68" speedFactor="1.00" vaporized=""/>
    <tripinfo id="G69" depart="68.50" departLane="wc_0" departPos="5.10" departSpeed="10.00" departDelay="5.50" arrival="370.50" arrivalLane="ce_0" arrivalPos="992.80" arrivalSpeed="7.85" duration="302.00" routeLength="1994.90" waitingTime="0.00" waitingCount="0" stopTime="0.00" timeLoss="102.48" rerouteNo="0" devices="tripinfo_G69" vType="typeCar@G69" speedFactor="1.00" vaporized=""/>
    <tripinfo id="H70" depart="71.00" departLane="wc_0" departPos="5.10" departSpeed="10.00" departDelay="6.00" arrival="371.50" arrivalLane="ce_0" arrivalPos="992.80" arrivalSpeed="7.97" duration="300.50" routeLength="1994.90" waitingTime="0.00" waitingCount="0" stopTime="0.00" timeLoss="100.98" rerouteNo="0" devices="tripinfo_H70" vType="typeCar@H70" speedFactor="1.00" vaporized=""/>
    <tripinfo id="H71" depart="116.80" departLane="sc_0" departPos="5.10" departSpeed="10.00" departDelay="51.80" arrival="373.50" arrivalLane="cn_0" arrivalPos="992.80" arrivalSpeed="8.00" duration="256.70" routeLength="1994.90" waitingTime="0.00" waitingCount="0" stopTime="0.00" timeLoss="57.18" rerouteNo="0" devices="tripinfo_H71" vType="typeCar@H71" speedFactor="1.00" vaporized=""/>
    <tripinfo id="H72" depart="73.50" departLane="wc_0" departPos="5.10" departSpeed="10.00" departDelay="6.50" arrival="375.50" arrivalLane="ce_0" arrivalPos="992.80" arrivalSpeed="8.03" duration="302.00" routeLength="1994.90" waitingTime="0.00" waitingCount="0" stopTime="0.00" timeLoss="102.48" rerouteNo="0" devices="tripinfo_H72" vType="typeCar@H72" speedFactor="1.00" vaporized=""/>
    <tripinfo id="H73" depart="119.70" departLane="sc_0" departPos="5.10" departSpeed="10.00" departDelay="52.70" arrival="377.50" arrivalLane="cn_0" arrivalPos="992.80" arrivalSpeed="7.84" duration="257.80" routeLength="1994.90" waitingTime="0.00" waitingCount="0" stopTime="0.00" timeLoss="58.28" rerouteNo="0" devices="tripinfo_H73" vType="typeCar@H73" speedFactor="1.00" vaporized=""/>