<?xml version="1.0" encoding="UTF-8"?>

<!-- generated on 2022-07-30 15:26:38 by Eclipse SUMO GUI Version 1.13.0
<configuration xmlns:xsi="http://www.w3.org/2001/XMLSchema-instance" xsi:noNamespaceSchemaLocation="http://sumo.dlr.de/xsd/sumoConfiguration.xsd">

    <input>
        <net-file value="net.net.xml"/>
        <route-files value="routes.rou.xml"/>
    </input>

    <output>
        <tripinfo-output value="raw_data/(3,3,0)tripinfo.xml"/>
    </output>

    <time>
        <begin value="0"/>
        <step-length value="0.1"/>
    </time>

    <processing>
        <collision.action value="warn"/>
        <collision.stoptime value="1"/>
        <collision.mingap-factor value="1"/>
    </processing>

    <report>
        <verbose value="false"/>
        <log value="log.txt"/>
        <duration-log.statistics value="true"/>
        <no-step-log value="true"/>
    </report>

    <traci_server>
        <remote-port value="11506"/>
    </traci_server>

    <gui_only>
        <tracker-interval value="0.1"/>
    </gui_only>

</configuration>
-->

<tripinfos xmlns:xsi="http://www.w3.org/2001/XMLSchema-instance" xsi:noNamespaceSchemaLocation="http://sumo.dlr.de/xsd/tripinfo_file.xsd">
    <tripinfo id="A0" depart="0.00" departLane="sc_0" departPos="5.10" departSpeed="10.00" departDelay="0.00" arrival="252.50" arrivalLane="cn_0" arrivalPos="992.80" arrivalSpeed="8.13" duration="252.50" routeLength="1994.90" waitingTime="0.00" waitingCount="0" stopTime="0.00" timeLoss="52.98" rerouteNo="0" devices="tripinfo_A0" vType="typeCar@A0" speedFactor="1.00" vaporized=""/>
    <tripinfo id="A1" depart="1.00" departLane="wc_0" departPos="5.10" departSpeed="10.00" departDelay="0.00" arrival="254.50" arrivalLane="ce_0" arrivalPos="992.80" arrivalSpeed="8.04" duration="253.50" routeLength="1994.90" waitingTime="0.00" waitingCount="0" stopTime="0.00" timeLoss="53.98" rerouteNo="0" devices="tripinfo_A1" vType="typeCar@A1" speedFactor="1.00" vaporized=""/>
    <tripinfo id="A2" depart="1.70" departLane="sc_0" departPos="5.10" departSpeed="10.00" departDelay="0.70" arrival="256.50" arrivalLane="cn_0" arrivalPos="992.80" arrivalSpeed="8.15" duration="254.80" routeLength="1994.90" waitingTime="0.00" waitingCount="0" stopTime="0.00" timeLoss="55.28" rerouteNo="0" devices="tripinfo_A2" vType="typeCar@A2" speedFactor="1.00" vaporized=""/>
    <tripinfo id="A3" depart="3.40" departLane="sc_0" departPos="5.10" departSpeed="10.00" departDelay="0.40" arrival="257.50" arrivalLane="cn_0" arrivalPos="992.80" arrivalSpeed="8.03" duration="254.10" routeLength="1994.90" waitingTime="0.00" waitingCount="0" stopTime="0.00" timeLoss="54.58" rerouteNo="0" devices="tripinfo_A3" vType="typeCar@A3" speedFactor="1.00" vaporized=""/>
    <tripinfo id="A4" depart="4.00" departLane="wc_0" departPos="5.10" departSpeed="10.00" departDelay="0.00" arrival="259.50" arrivalLane="ce_0" arrivalPos="992.80" arrivalSpeed="8.18" duration="255.50" routeLength="1994.90" waitingTime="0.00" waitingCount="0" stopTime="0.00" timeLoss="55.98" rerouteNo="0" devices="tripinfo_A4" vType="typeCar@A4" speedFactor="1.00" vaporized=""/>
    <tripinfo id="A5" depart="6.50" departLane="sc_0" departPos="5.10" departSpeed="10.00" departDelay="2.50" arrival="261.50" arrivalLane="cn_0" arrivalPos="992.80" arrivalSpeed="7.91" duration="255.00" routeLength="1994.90" waitingTime="0.00" waitingCount="0" stopTime="0.00" timeLoss="55.48" rerouteNo="0" devices="tripinfo_A5" vType="typeCar@A5" speedFactor="1.00" vaporized=""/>
    <tripinfo id="A6" depart="5.70" departLane="wc_0" departPos="5.10" departSpeed="10.00" departDelay="0.70" arrival="263.50" arrivalLane="ce_0" arrivalPos="992.80" arrivalSpeed="7.75" duration="257.80" routeLength="1994.90" waitingTime="0.00" waitingCount="0" stopTime="0.00" timeLoss="58.28" rerouteNo="0" devices="tripinfo_A6" vType="typeCar@A6" speedFactor="1.00" vaporized=""/>
    <tripinfo id="A7" depart="9.40" departLane="sc_0" departPos="5.10" departSpeed="10.00" departDelay="4.40" arrival="265.50" arrivalLane="cn_0" arrivalPos="992.80" arrivalSpeed="8.13" duration="256.10" routeLength="1994.90" waitingTime="0.00" waitingCount="0" stopTime="0.00" timeLoss="56.58" rerouteNo="0" devices="tripinfo_A7" vType="typeCar@A7" speedFactor="1.00" vaporized=""/>
    <tripinfo id="A8" depart="7.90" departLane="wc_0" departPos="5.10" departSpeed="10.00" departDelay="1.90" arrival="267.50" arrivalLane="ce_0" arrivalPos="992.80" arrivalSpeed="8.11" duration="259.60" routeLength="1994.90" waitingTime="0.00" waitingCount="0" stopTime="0.00" timeLoss="60.08" rerouteNo="0" devices="tripinfo_A8" vType="typeCar@A8" speedFactor="1.00" vaporized=""/>
    <tripinfo id="A9" depart="12.30" departLane="sc_0" departPos="5.10" departSpeed="10.00" departDelay="6.30" arrival="269.50" arrivalLane="cn_0" arrivalPos="992.80" arrivalSpeed="7.95" duration="257.20" routeLength="1994.90" waitingTime="0.00" waitingCount="0" stopTime="0.00" timeLoss="57.68" rerouteNo="0" devices="tripinfo_A9" vType="typeCar@A9" speedFactor="1.00" vaporized=""/>
    <tripinfo id="B10" depart="15.10" departLane="sc_0" departPos="5.10" departSpeed="10.00" departDelay="8.10" arrival="270.50" arrivalLane="cn_0" arrivalPos="992.80" arrivalSpeed="7.93" duration="255.40" routeLength="1994.90" waitingTime="0.00" waitingCount="0" stopTime="0.00" timeLoss="55.88" rerouteNo="0" devices="tripinfo_B10" vType="typeCar@B10" speedFactor="1.00" vaporized=""/>
    <tripinfo id="B11" depart="10.70" departLane="wc_0" departPos="5.10" departSpeed="10.00" departDelay="2.70" arrival="272.50" arrivalLane="ce_0" arrivalPos="992.80" arrivalSpeed="8.14" duration="261.80" routeLength="1994.90" waitingTime="0.00" waitingCount="0" stopTime="0.00" timeLoss="62.28" rerouteNo="0" devices="tripinfo_B11" vType="typeCar@B11" speedFactor="1.00" vaporized=""/>
    <tripinfo id="B12" depart="18.00" departLane="sc_0" departPos="5.10" departSpeed="10.00" departDelay="10.00" arrival="274.50" arrivalLane="cn_0" arrivalPos="992.80" arrivalSpeed="7.88" duration="256.50" routeLength="1994.90" waitingTime="0.00" waitingCount="0" stopTime="0.00" timeLoss="56.98" rerouteNo="0" devices="tripinfo_B12" vType="typeCar@B12" speedFactor="1.00" vaporized=""/>
    <tripinfo id="B13" depart="20.90" departLane="sc_0" departPos="5.10" departSpeed="10.00" departDelay="11.90" arrival="275.50" arrivalLane="cn_0" arrivalPos="992.80" arrivalSpeed="7.81" duration="254.60" routeLength="1994.90" waitingTime="0.00" waitingCount="0" stopTime="0.00" timeLoss="55.08" rerouteNo="0" devices="tripinfo_B13" vType="typeCar@B13" speedFactor="1.00" vaporized=""/>
    <tripinfo id="B14" depart="13.50" departLane="wc_0" departPos="5.10" departSpeed="10.00" departDelay="2.50" arrival="277.50" arrivalLane="ce_0" arrivalPos="992.80" arrivalSpeed="8.17" duration="264.00" routeLength="1994.90" waitingTime="0.00" waitingCount="0" stopTime="0.00" timeLoss="64.48" rerouteNo="0" devices="tripinfo_B14" vType="typeCar@B14" speedFactor="1.00" vaporized=""/>
    <tripinfo id="B15" depart="23.80" departLane="sc_0" departPos="5.10" departSpeed="10.00" departDelay="12.80" arrival="279.50" arrivalLane="cn_0" arrivalPos="992.80" arrivalSpeed="8.08" duration="255.70" routeLength="1994.90" waitingTime="0.00" waitingCount="0" stopTime="0.00" timeLoss="56.18" rerouteNo="0" devices="tripinfo_B15" vType="typeCar@B15" speedFactor="1.00" vaporized=""/>
    <tripinfo id="B16" depart="26.70" departLane="sc_0" departPos="5.10" departSpeed="10.00" departDelay="14.70" arrival="280.50" arrivalLane="cn_0" arrivalPos="992.80" arrivalSpeed="7.90" duration="253.80" routeLength="1994.90" waitingTime="0.00" waitingCount="0" stopTime="0.00" timeLoss="54.28" rerouteNo="0" devices="tripinfo_B16" vType="typeCar@B16" speedFactor="1.00" vaporized=""/>
    <tripinfo id="B17" depart="16.20" departLane="wc_0" departPos="5.10" departSpeed="10.00" departDelay="3.20" arrival="282.50" arrivalLane="ce_0" arrivalPos="992.80" arrivalSpeed="7.96" duration="266.30" routeLength="1994.90" waitingTime="0.00" waitingCount="0" stopTime="0.00" timeLoss="66.78" rerouteNo="0" devices="tripinfo_B17" vType="typeCar@B17" speedFactor="1.00" vaporized=""/>
    <tripinfo id="B18" depart="29.50" departLane="sc_0" departPos="5.10" departSpeed="10.00" departDelay="16.50" arrival="284.50" arrivalLane="cn_0" arrivalPos="992.80" arrivalSpeed="8.08" duration="255.00" routeLength="1994.90" waitingTime="0.00" waitingCount="0" stopTime="0.00" timeLoss="55.48" rerouteNo="0" devices="tripinfo_B18" vType="typeCar@B18" speedFactor="1.00" vaporized=""/>
    <tripinfo id="B19" depart="18.80" departLane="wc_0" departPos="5.10" departSpeed="10.00" departDelay="2.80" arrival="286.50" arrivalLane="ce_0" arrivalPos="992.80" arrivalSpeed="8.08" duration="267.70" routeLength="1994.90" waitingTime="0.00" waitingCount="0" stopTime="0.00" timeLoss="68.18" rerouteNo="0" devices="tripinfo_B19" vType="typeCar@B19" speedFactor="1.00" vaporized=""/>
    <tripinfo id="C20" depart="21.40" departLane="wc_0" departPos="5.10" departSpeed="10.00" departDelay="4.40" arrival="287.50" arrivalLane="ce_0" arrivalPos="992.80" arrivalSpeed="8.15" duration="266.10" routeLength="1994.90" waitingTime="0.00" waitingCount="0" stopTime="0.00" timeLoss="66.58" rerouteNo="0" devices="tripinfo_C20" vType="typeCar@C20" speedFactor="1.00" vaporized=""/>
    <tripinfo id="C21" depart="32.40" departLane="sc_0" departPos="5.10" departSpeed="10.00" departDelay="15.40" arrival="289.50" arrivalLane="cn_0" arrivalPos="992.80" arrivalSpeed="8.16" duration="257.10" routeLength="1994.90" waitingTime="0.00" waitingCount="0" stopTime="0.00" timeLoss="57.58" rerouteNo="0" devices="tripinfo_C21" vType="typeCar@C21" speedFactor="1.00" vaporized=""/>
    <tripinfo id="C22" depart="35.30" departLane="sc_0" departPos="5.10" departSpeed="10.00" departDelay="16.30" arrival="290.50" arrivalLane="cn_0" arrivalPos="992.80" arrivalSpeed="8.11" duration="255.20" routeLength="1994.90" waitingTime="0.00" waitingCount="0" stopTime="0.00" timeLoss="55.68" rerouteNo="0" devices="tripinfo_C22" vType="typeCar@C22" speedFactor="1.00" vaporized=""/>
    <tripinfo id="C23" depart="38.20" departLane="sc_0" departPos="5.10" departSpeed="10.00" departDelay="18.20" arrival="291.50" arrivalLane="cn_0" arrivalPos="992.80" arrivalSpeed="8.18" duration="253.30" routeLength="1994.90" waitingTime="0.00" waitingCount="0" stopTime="0.00" timeLoss="53.78" rerouteNo="0" devices="tripinfo_C23" vType="typeCar@C23" speedFactor="1.00" vaporized=""/>
    <tripinfo id="C24" depart="24.00" departLane="wc_0" departPos="5.10" departSpeed="10.00" departDelay="3.00" arrival="293.50" arrivalLane="ce_0" arrivalPos="992.80" arrivalSpeed="8.10" duration="269.50" routeLength="1994.90" waitingTime="0.00" waitingCount="0" stopTime="0.00" timeLoss="69.98" rerouteNo="0" devices="tripinfo_C24" vType="typeCar@C24" speedFactor="1.00" vaporized=""/>
    <tripinfo id="C25" depart="41.00" departLane="sc_0" departPos="5.10" departSpeed="10.00" departDelay="20.00" arrival="295.50" arrivalLane="cn_0" arrivalPos="992.80" arrivalSpeed="7.83" duration="254.50" routeLength="1994.90" waitingTime="0.00" waitingCount="0" stopTime="0.00" timeLoss="54.98" rerouteNo="0" devices="tripinfo_C25" vType="typeCar@C25" speedFactor="1.00" vaporized=""/>
    <tripinfo id="C26" depart="26.50" departLane="wc_0" departPos="5.10" departSpeed="10.00" departDelay="4.50" arrival="297.50" arrivalLane="ce_0" arrivalPos="992.80" arrivalSpeed="8.17" duration="271.00" routeLength="1994.90" waitingTime="0.00" waitingCount="0" stopTime="0.00" timeLoss="71.48" rerouteNo="0" devices="tripinfo_C26" vType="typeCar@C26" speedFactor="1.00" vaporized=""/>
    <tripinfo id="C27" depart="43.90" departLane="sc_0" departPos="5.10" departSpeed="10.00" departDelay="21.90" arrival="299.50" arrivalLane="cn_0" arrivalPos="992.80" arrivalSpeed="7.96" duration="255.60" routeLength="1994.90" waitingTime="0.00" waitingCount="0" stopTime="0.00" timeLoss="56.08" rerouteNo="0" devices="tripinfo_C27" vType="typeCar@C27" speedFactor="1.00" vaporized=""/>
    <tripinfo id="C28" depart="29.00" departLane="wc_0" departPos="5.10" departSpeed="10.00" departDelay="6.00" arrival="301.50" arrivalLane="ce_0" arrivalPos="992.80" arrivalSpeed="8.16" duration="272.50" routeLength="1994.90" waitingTime="0.00" waitingCount="0" stopTime="0.00" timeLoss="72.98" rerouteNo="0" devices="tripinfo_C28" vType="typeCar@C28" speedFactor="1.00" vaporized=""/>
    <tripinfo id="C29" depart="46.80" departLane="sc_0" departPos="5.10" departSpeed="10.00" departDelay="23.80" arrival="303.50" arrivalLane="cn_0" arrivalPos="992.80" arrivalSpeed="8.21" duration="256.70" routeLength="1994.90" waitingTime="0.00" waitingCount="0" stopTime="0.00" timeLoss="57.18" rerouteNo="0" devices="tripinfo_C29" vType="typeCar@C29" speedFactor="1.00" vaporized=""/>
    <tripinfo id="D30" depart="49.70" departLane="sc_0" departPos="5.10" departSpeed="10.00" departDelay="25.70" arrival="304.50" arrivalLane="cn_0" arrivalPos="992.80" arrivalSpeed="7.78" duration="254.80" routeLength="1994.90" waitingTime="0.00" waitingCount="0" stopTime="0.00" timeLoss="55.28" rerouteNo="0" devices="tripinfo_D30" vType="typeCar@D30" speedFactor="1.00" vaporized=""/>
    <tripinfo id="D31" depart="31.60" departLane="wc_0" departPos="5.10" departSpeed="10.00" departDelay="6.60" arrival="306.50" arrivalLane="ce_0" arrivalPos="992.80" arrivalSpeed="7.76" duration="274.90" routeLength="1994.90" waitingTime="0.00" waitingCount="0" stopTime="0.00" timeLoss="75.38" rerouteNo="0" devices="tripinfo_D31" vType="typeCar@D31" speedFactor="1.00" vaporized=""/>
    <tripinfo id="D32" depart="52.50" departLane="sc_0" departPos="5.10" departSpeed="10.00" departDelay="27.50" arrival="308.50" arrivalLane="cn_0" arrivalPos="992.80" arrivalSpeed="8.10" duration="256.00" routeLength="1994.90" waitingTime="0.00" waitingCount="0" stopTime="0.00" timeLoss="56.48" rerouteNo="0" devices="tripinfo_D32" vType="typeCar@D32" speedFactor="1.00" vaporized=""/>
    <tripinfo id="D33" depart="34.10" departLane="wc_0" departPos="5.10" departSpeed="10.00" departDelay="8.10" arrival="310.50" arrivalLane="ce_0" arrivalPos="992.80" arrivalSpeed="7.94" duration="276.40" routeLength="1994.90" waitingTime="0.00" waitingCount="0" stopTime="0.00" timeLoss="76.88" rerouteNo="0" devices="tripinfo_D33" vType="typeCar@D33" speedFactor="1.00" vaporized=""/>
    <tripinfo id="D34" depart="36.60" departLane="wc_0" departPos="5.10" departSpeed="10.00" departDelay="8.60" arrival="311.50" arrivalLane="ce_0" arrivalPos="992.80" arrivalSpeed="8.17" duration="274.90" routeLength="1994.90" waitingTime="0.00" waitingCount="0" stopTime="0.00" timeLoss="75.38" rerouteNo="0" devices="tripinfo_D34" vType="typeCar@D34" speedFactor="1.00" vaporized=""/>
    <tripinfo id="D35" depart="39.10" departLane="wc_0" departPos="5.10" departSpeed="10.00" departDelay="10.10" arrival="312.50" arrivalLane="ce_0" arrivalPos="992.80" arrivalSpeed="8.01" duration="273.40" routeLength="1994.90" waitingTime="0.00" waitingCount="0" stopTime="0.00" timeLoss="73.88" rerouteNo="0" devices="tripinfo_D35" vType="typeCar@D35" speedFactor="1.00" vaporized=""/>
    <tripinfo id="D36" depart="55.40" departLane="sc_0" departPos="5.10" departSpeed="10.00" departDelay="26.40" arrival="314.50" arrivalLane="cn_0" arrivalPos="992.80" arrivalSpeed="8.06" duration="259.10" routeLength="1994.90" waitingTime="0.00" waitingCount="0" stopTime="0.00" timeLoss="59.58" rerouteNo="0" devices="tripinfo_D36" vType="typeCar@D36" speedFactor="1.00" vaporized=""/>
    <tripinfo id="D37" depart="41.60" departLane="wc_0" departPos="5.10" departSpeed="10.00" departDelay="10.60" arrival="316.50" arrivalLane="ce_0" arrivalPos="992.80" arrivalSpeed="8.20" duration="274.90" routeLength="1994.90" waitingTime="0.00" waitingCount="0" stopTime="0.00" timeLoss="75.38" rerouteNo="0" devices="tripinfo_D37" vType="typeCar@D37" speedFactor="1.00" vaporized=""/>
    <tripinfo id="D38" depart="44.10" departLane="wc_0" departPos="5.10" departSpeed="10.00" departDelay="11.10" arrival="317.50" arrivalLane="ce_0" arrivalPos="992.80" arrivalSpeed="8.04" duration="273.40" routeLength="1994.90" waitingTime="0.00" waitingCount="0" stopTime="0.00" timeLoss="73.88" rerouteNo="0" devices="tripinfo_D38" vType="typeCar@D38" speedFactor="1.00" vaporized=""/>
    <tripinfo id="D39" depart="58.30" departLane="sc_0" departPos="5.10" departSpeed="10.00" departDelay="25.30" arrival="319.50" arrivalLane="cn_0" arrivalPos="992.80" arrivalSpeed="7.82" duration="261.20" routeLength="1994.90" waitingTime="0.00" waitingCount="0" stopTime="0.00" timeLoss="61.68" rerouteNo="0" devices="tripinfo_D39" vType="typeCar@D39" speedFactor="1.00" vaporized=""/>
    <tripinfo id="E40" depart="46.60" departLane="wc_0" departPos="5.10" departSpeed="10.00" departDelay="12.60" arrival="321.50" arrivalLane="ce_0" arrivalPos="992.80" arrivalSpeed="8.07" duration="274.90" routeLength="1994.90" waitingTime="0.00" waitingCount="0" stopTime="0.00" timeLoss="75.38" rerouteNo="0" devices="tripinfo_E40" vType="typeCar@E40" speedFactor="1.00" vaporized=""/>
    <tripinfo id="E41" depart="61.20" departLane="sc_0" departPos="5.10" departSpeed="10.00" departDelay="27.20" arrival="323.50" arrivalLane="cn_0" arrivalPos="992.80" arrivalSpeed="8.03" duration="262.30" routeLength="1994.90" waitingTime="0.00" waitingCount="0" stopTime="0.00" timeLoss="62.78" rerouteNo="0" devices="tripinfo_E41" vType="typeCar@E41" speedFactor="1.00" vaporized=""/>
    <tripinfo id="E42" depart="49.10" departLane="wc_0" departPos="5.10" departSpeed="10.00" departDelay="14.10" arrival="325.50" arrivalLane="ce_0" arrivalPos="992.80" arrivalSpeed="7.73" duration="276.40" routeLength="1994.90" waitingTime="0.00" waitingCount="0" stopTime="0.00" timeLoss="76.88" rerouteNo="0" devices="tripinfo_E42" vType="typeCar@E42" speedFactor="1.00" vaporized=""/>
    <tripinfo id="E43" depart="64.00" departLane="sc_0" departPos="5.10" departSpeed="10.00" departDelay="28.00" arrival="327.50" arrivalLane="cn_0" arrivalPos="992.80" arrivalSpeed="7.94" duration="263.50" routeLength="1994.90" waitingTime="0.00" waitingCount="0" stopTime="0.00" timeLoss="63.98" rerouteNo="0" devices="tripinfo_E43" vType="typeCar@E43" speedFactor="1.00" vaporized=""/>
    <tripinfo id="E44" depart="66.90" departLane="sc_0" departPos="5.10" departSpeed="10.00" departDelay="29.90" arrival="328.50" arrivalLane="cn_0" arrivalPos="992.80" arrivalSpeed="8.13" duration="261.60" routeLength="1994.90" waitingTime="0.00" waitingCount="0" stopTime="0.00" timeLoss="62.08" rerouteNo="0" devices="tripinfo_E44" vType="typeCar@E44" speedFactor="1.00" vaporized=""/>
    <tripinfo id="E45" depart="69.80" departLane="sc_0" departPos="5.10" departSpeed="10.00" departDelay="31.80" arrival="329.50" arrivalLane="cn_0" arrivalPos="992.80" arrivalSpeed="8.15" duration="259.70" routeLength="1994.90" waitingTime="0.00" waitingCount="0" stopTime="0.00" timeLoss="60.18" rerouteNo="0" devices="tripinfo_E45" vType="typeCar@E45" speedFactor="1.00" vaporized=""/>
    <tripinfo id="E46" depart="51.60" departLane="wc_0" departPos="5.10" departSpeed="10.00" departDelay="12.60" arrival="331.50" arrivalLane="ce_0" arrivalPos="992.80" arrivalSpeed="8.01" duration="279.90" routeLength="1994.90" waitingTime="0.00" waitingCount="0" stopTime="0.00" timeLoss="80.38" rerouteNo="0" devices="tripinfo_E46" vType="typeCar@E46" speedFactor="1.00" vaporized=""/>
    <tripinfo id="E47" depart="72.70" departLane="sc_0" departPos="5.10" departSpeed="10.00" departDelay="33.70" arrival="333.50" arrivalLane="cn_0" arrivalPos="992.80" arrivalSpeed="8.16" duration="260.80" routeLength="1994.90" waitingTime="0.00" waitingCount="0" stopTime="0.00" timeLoss="61.28" rerouteNo="0" devices="tripinfo_E47" vType="typeCar@E47" speedFactor="1.00" vaporized=""/>
    <tripinfo id="E48" depart="54.10" departLane="wc_0" departPos="5.10" departSpeed="10.00" departDelay="14.10" arrival="335.50" arrivalLane="ce_0" arrivalPos="992.80" arrivalSpeed="8.16" duration="281.40" routeLength="1994.90" waitingTime="0.00" waitingCount="0" stopTime="0.00" timeLoss="81.88" rerouteNo="0" devices="tripinfo_E48" vType="typeCar@E48" speedFactor="1.00" vaporized=""/>
    <tripinfo id="E49" depart="75.50" departLane="sc_0" departPos="5.10" departSpeed="10.00" departDelay="35.50" arrival="337.50" arrivalLane="cn_0" arrivalPos="992.80" arrivalSpeed="8.16" duration="262.00" routeLength="1994.90" waitingTime="0.00" waitingCount="0" stopTime="0.00" timeLoss="62.48" rerouteNo="0" devices="tripinfo_E49" vType="typeCar@E49" speedFactor="1.00" vaporized=""/>
    <tripinfo id="F50" depart="56.60" departLane="wc_0" departPos="5.10" departSpeed="10.00" departDelay="15.60" arrival="339.50" arrivalLane="ce_0" arrivalPos="992.80" arrivalSpeed="7.94" duration="282.90" routeLength="1994.90" waitingTime="0.00" waitingCount="0" stopTime="0.00" timeLoss="83.38" rerouteNo="0" devices="tripinfo_F50" vType="typeCar@F50" speedFactor="1.00" vaporized=""/>
    <tripinfo id="F51" depart="59.10" departLane="wc_0" departPos="5.10" departSpeed="10.00" departDelay="17.10" arrival="340.50" arrivalLane="ce_0" arrivalPos="992.80" arrivalSpeed="7.80" duration="281.40" routeLength="1994.90" waitingTime="0.00" waitingCount="0" stopTime="0.00" timeLoss="81.88" rerouteNo="0" devices="tripinfo_F51" vType="typeCar@F51" speedFactor="1.00" vaporized=""/>
    <tripinfo id="F52" depart="78.40" departLane="sc_0" departPos="5.10" departSpeed="10.00" departDelay="36.40" arrival="342.50" arrivalLane="cn_0" arrivalPos="992.80" arrivalSpeed="7.86" duration="264.10" routeLength="1994.90" waitingTime="0.00" waitingCount="0" stopTime="0.00" timeLoss="64.58" rerouteNo="0" devices="tripinfo_F52" vType="typeCar@F52" speedFactor="1.00" vaporized=""/>
    <tripinfo id="F53" depart="81.30" departLane="sc_0" departPos="5.10" departSpeed="10.00" departDelay="38.30" arrival="343.50" arrivalLane="cn_0" arrivalPos="992.80" arrivalSpeed="7.99" duration="262.20" routeLength="1994.90" waitingTime="0.00" waitingCount="0" stopTime="0.00" timeLoss="62.68" rerouteNo="0" devices="tripinfo_F53" vType="typeCar@F53" speedFactor="1.00" vaporized=""/>
    <tripinfo id="F54" depart="61.60" departLane="wc_0" departPos="5.10" departSpeed="10.00" departDelay="17.60" arrival="345.50" arrivalLane="ce_0" arrivalPos="992.80" arrivalSpeed="7.99" duration="283.90" routeLength="1994.90" waitingTime="0.00" waitingCount="0" stopTime="0.00" timeLoss="84.38" rerouteNo="0" devices="tripinfo_F54" vType="typeCar@F54" speedFactor="1.00" vaporized=""/>
    <tripinfo id="F55" depart="84.20" departLane="sc_0" departPos="5.10" departSpeed="10.00" departDelay="40.20" arrival="347.50" arrivalLane="cn_0" arrivalPos="992.80" arrivalSpeed="7.82" duration="263.30" routeLength="1994.90" waitingTime="0.00" waitingCount="0" stopTime="0.00" timeLoss="63.78" rerouteNo="0" devices="tripinfo_F55" vType="typeCar@F55" speedFactor="1.00" vaporized=""/>
    <tripinfo id="F56" depart="64.10" departLane="wc_0" departPos="5.10" departSpeed="10.00" departDelay="19.10" arrival="349.50" arrivalLane="ce_0" arrivalPos="992.80" arrivalSpeed="8.18" duration="285.40" routeLength="1994.90" waitingTime="0.00" waitingCount="0" stopTime="0.00" timeLoss="85.88" rerouteNo="0" devices="tripinfo_F56" vType="typeCar@F56" speedFactor="1.00" vaporized=""/>
    <tripinfo id="F57" depart="87.00" departLane="sc_0" departPos="5.10" departSpeed="10.00" departDelay="41.00" arrival="351.50" arrivalLane="cn_0" arrivalPos="992.80" arrivalSpeed="8.00" duration="264.50" routeLength="1994.90" waitingTime="0.00" waitingCount="0" stopTime="0.00" timeLoss="64.98" rerouteNo="0" devices="tripinfo_F57" vType="typeCar@F57" speedFactor="1.00" vaporized=""/>
    <tripinfo id="F58" depart="66.60" departLane="wc_0" departPos="5.10" departSpeed="10.00" departDelay="19.60" arrival="353.50" arrivalLane="ce_0" arrivalPos="992.80" arrivalSpeed="8.12" duration="286.90" routeLength="1994.90" waitingTime="0.00" waitingCount="0" stopTime="0.00" timeLoss="87.38" rerouteNo="0" devices="tripinfo_F58" vType="typeCar@F58" speedFactor="1.00" vaporized=""/>
    <tripinfo id="F59" depart="89.90" departLane="sc_0" departPos="5.10" departSpeed="10.00" departDelay="42.90" arrival="355.50" arrivalLane="cn_0" arrivalPos="992.80" arrivalSpeed="8.03" duration="265.60" routeLength="1994.90" waitingTime="0.00" waitingCount="0" stopTime="0.00" timeLoss="66.08" rerouteNo="0" devices="tripinfo_F59" vType="typeCar@F59" speedFactor="1.00" vaporized=""/>
    <tripinfo id="G60" depart="92.80" departLane="sc_0" departPos="5.10" departSpeed="10.00" departDelay="44.80" arrival="356.50" arrivalLane="cn_0" arrivalPos="992.80" arrivalSpeed="8.07" duration="263.70" routeLength="1994.90" waitingTime="0.00" waitingCount="0" stopTime="0.00" timeLoss="64.18" rerouteNo="0" devices="tripinfo_G60" vType="typeCar@G60" speedFactor="1.00" vaporized=""/>
    <tripinfo id="G61" depart="69.10" departLane="wc_0" departPos="5.10" departSpeed="10.00" departDelay="19.10" arrival="358.50" arrivalLane="ce_0" arrivalPos="992.80" arrivalSpeed="8.18" duration="289.40" routeLength="1994.90" waitingTime="0.00" waitingCount="0" stopTime="0.00" timeLoss="89.88" rerouteNo="0" devices="tripinfo_G61" vType="typeCar@G61" speedFactor="1.00" vaporized=""/>
    <tripinfo id="G62" depart="95.70" departLane="sc_0" departPos="5.10" departSpeed="10.00" departDelay="44.70" arrival="360.50" arrivalLane="cn_0" arrivalPos="992.80" arrivalSpeed="8.09" duration="264.80" routeLength="1994.90" waitingTime="0.00" waitingCount="0" stopTime="0.00" timeLoss="65.28" rerouteNo="0" devices="tripinfo_G62" vType="typeCar@G62" speedFactor="1.00" vaporized=""/>
    <tripinfo id="G63" depart="71.60" departLane="wc_0" departPos="5.10" departSpeed="10.00" departDelay="19.60" arrival="362.50" arrivalLane="ce_0" arrivalPos="992.80" arrivalSpeed="8.15" duration="290.90" routeLength="1994.90" waitingTime="0.00" waitingCount="0" stopTime="0.00" timeLoss="91.38" rerouteNo="0" devices="tripinfo_G63" vType="typeCar@G63" speedFactor="1.00" vaporized=""/>
    <tripinfo id="G64" depart="74.10" departLane="wc_0" departPos="5.10" departSpeed="10.00" departDelay="21.10" arrival="363.50" arrivalLane="ce_0" arrivalPos="992.80" arrivalSpeed="8.15" duration="289.40" routeLength="1994.90" waitingTime="0.00" waitingCount="0" stopTime="0.00" timeLoss="89.88" rerouteNo="0" devices="tripinfo_G64" vType="typeCar@G64" speedFactor="1.00" vaporized=""/>
    <tripinfo id="G65" depart="98.50" departLane="sc_0" departPos="5.10" departSpeed="10.00" departDelay="45.50" arrival="365.50" arrivalLane="cn_0" arrivalPos="992.80" arrivalSpeed="7.91" duration="267.00" routeLength="1994.90" waitingTime="0.00" waitingCount="0" stopTime="0.00" timeLoss="67.48" rerouteNo="0" devices="tripinfo_G65" vType="typeCar@G65" speedFactor="1.00" vaporized=""/>
    <tripinfo id="G66" depart="76.60" departLane="wc_0" departPos="5.10" departSpeed="10.00" departDelay="22.60" arrival="367.50" arrivalLane="ce_0" arrivalPos="992.80" arrivalSpeed="7.77" duration="290.90" routeLength="1994.90" waitingTime="0.00" waitingCount="0" stopTime="0.00" timeLoss="91.38" rerouteNo="0" devices="tripinfo_G66" vType="typeCar@G66" speedFactor="1.00" vaporized=""/>
    <tripinfo id="G67" depart="101.40" departLane="sc_0" departPos="5.10" departSpeed="10.00" departDelay="46.40" arrival="369.50" arrivalLane="cn_0" arrivalPos="992.80" arrivalSpeed="7.89" duration="268.10" routeLength="1994.90" waitingTime="0.00" waitingCount="0" stopTime="0.00" timeLoss="68.58" rerouteNo="0" devices="tripinfo_G67" vType="typeCar@G67" speedFactor="1.00" vaporized=""/>
    <tripinfo id="G68" depart="79.10" departLane="wc_0" departPos="5.10" departSpeed="10.00" departDelay="23.10" arrival="371.50" arrivalLane="ce_0" arrivalPos="992.80" arrivalSpeed="8.17" duration="292.40" routeLength="1994.90" waitingTime="0.00" waitingCount="0" stopTime="0.00" timeLoss="92.88" rerouteNo="0" devices="tripinfo_G68" vType="typeCar@G68" speedFactor="1.00" vaporized=""/>
    <tripinfo id="G69" depart="104.30" departLane="sc_0" departPos="5.10" departSpeed="10.00" departDelay="48.30" arrival="373.50" arrivalLane="cn_0" arrivalPos="992.80" arrivalSpeed="8.01" duration="269.20" routeLength="1994.90" waitingTime="0.00" waitingCount="0" stopTime="0.00" timeLoss="69.68" rerouteNo="0" devices="tripinfo_G69" vType="typeCar@G69" speedFactor="1.00" vaporized=""/>
    <tripinfo id="H70" depart="81.60" departLane="wc_0" departPos="5.10" departSpeed="10.00" departDelay="23.60" arrival="375.50" arrivalLane="ce_0" arrivalPos="992.80" arrivalSpeed="8.06" duration="293.90" routeLength="1994.90" waitingTime="0.00" waitingCount="0" stopTime="0.00" timeLoss="94.38" rerouteNo="0" devices="tripinfo_H70" vType="typeCar@H70" speedFactor="1.00" vaporized=""/>
    <tripinfo id="H71" depart="107.20" departLane="sc_0" departPos="5.10" departSpeed="10.00" departDelay="48.20" arrival="377.50" arrivalLane="cn_0" arrivalPos="992.80" arrivalSpeed="8.18" duration="270.30" routeLength="1994.90" waitingTime="0.00" waitingCount="0" stopTime="0.00" timeLoss="70.78" rerouteNo="0" devices="tripinfo_H71" vType="typeCar@H71" speedFactor="1.00" vaporized=""/>
    <tripinfo id="H72" depart="110.00" departLane="sc_0" departPos="5.10" departSpeed="10.00" departDelay="50.00" arrival="378.50" arrivalLane="cn_0" arrivalPos="992.80" arrivalSpeed="7.94" duration="268.50" routeLength="1994.90" waitingTime="0.00" waitingCount="0" stopTime="0.00" timeLoss="68.98" rerouteNo="0" devices="tripinfo_H72" vType="typeCar@H72" speedFactor="1.00" vaporized=""/>
    <tripinfo id="H73" depart="112.90" departLane="sc_0" departPos="5.10" departSpeed="10.00" departDelay="51.90" arrival="379.50" arrivalLane="cn_0" arrivalPos="992.80" arrivalSpeed="8.12" duration="266.60" routeLength="1994.90" waitingTime="0.00" waitingCount="0" stopTime="0.00" timeLoss="67.08" rerouteNo="0" devices="tripinfo_H73" vType="typeCar@H73" speedFactor="1.00" vaporized=""/>