<?xml version="1.0" encoding="UTF-8"?>

<!-- generated on 2022-07-30 15:29:54 by Eclipse SUMO GUI Version 1.13.0
<configuration xmlns:xsi="http://www.w3.org/2001/XMLSchema-instance" xsi:noNamespaceSchemaLocation="http://sumo.dlr.de/xsd/sumoConfiguration.xsd">

    <input>
        <net-file value="net.net.xml"/>
        <route-files value="routes.rou.xml"/>
    </input>

    <output>
        <tripinfo-output value="raw_data/(3,4,0)tripinfo.xml"/>
    </output>

    <time>
        <begin value="0"/>
        <step-length value="0.1"/>
    </time>

    <processing>
        <collision.action value="warn"/>
        <collision.stoptime value="1"/>
        <collision.mingap-factor value="1"/>
    </processing>

    <report>
        <verbose value="false"/>
        <log value="log.txt"/>
        <duration-log.statistics value="true"/>
        <no-step-log value="true"/>
    </report>

    <traci_server>
        <remote-port value="11694"/>
    </traci_server>

    <gui_only>
        <tracker-interval value="0.1"/>
    </gui_only>

</configuration>
-->

<tripinfos xmlns:xsi="http://www.w3.org/2001/XMLSchema-instance" xsi:noNamespaceSchemaLocation="http://sumo.dlr.de/xsd/tripinfo_file.xsd">
    <tripinfo id="A0" depart="0.00" departLane="wc_0" departPos="5.10" departSpeed="10.00" departDelay="0.00" arrival="252.50" arrivalLane="ce_0" arrivalPos="992.80" arrivalSpeed="8.13" duration="252.50" routeLength="1994.90" waitingTime="0.00" waitingCount="0" stopTime="0.00" timeLoss="52.98" rerouteNo="0" devices="tripinfo_A0" vType="typeCar@A0" speedFactor="1.00" vaporized=""/>
    <tripinfo id="A1" depart="0.00" departLane="sc_0" departPos="5.10" departSpeed="10.00" departDelay="0.00" arrival="254.50" arrivalLane="cn_0" arrivalPos="992.80" arrivalSpeed="8.07" duration="254.50" routeLength="1994.90" waitingTime="0.00" waitingCount="0" stopTime="0.00" timeLoss="54.98" rerouteNo="0" devices="tripinfo_A1" vType="typeCar@A1" speedFactor="1.00" vaporized=""/>
    <tripinfo id="A2" depart="1.70" departLane="wc_0" departPos="5.10" departSpeed="10.00" departDelay="0.70" arrival="256.50" arrivalLane="ce_0" arrivalPos="992.80" arrivalSpeed="7.89" duration="254.80" routeLength="1994.90" waitingTime="0.00" waitingCount="0" stopTime="0.00" timeLoss="55.28" rerouteNo="0" devices="tripinfo_A2" vType="typeCar@A2" speedFactor="1.00" vaporized=""/>
    <tripinfo id="A3" depart="1.70" departLane="sc_0" departPos="5.10" departSpeed="10.00" departDelay="0.70" arrival="258.50" arrivalLane="cn_0" arrivalPos="992.80" arrivalSpeed="8.01" duration="256.80" routeLength="1994.90" waitingTime="0.00" waitingCount="0" stopTime="0.00" timeLoss="57.28" rerouteNo="0" devices="tripinfo_A3" vType="typeCar@A3" speedFactor="1.00" vaporized=""/>
    <tripinfo id="A4" depart="3.40" departLane="wc_0" departPos="5.10" departSpeed="10.00" departDelay="1.40" arrival="260.50" arrivalLane="ce_0" arrivalPos="992.80" arrivalSpeed="8.03" duration="257.10" routeLength="1994.90" waitingTime="0.00" waitingCount="0" stopTime="0.00" timeLoss="57.58" rerouteNo="0" devices="tripinfo_A4" vType="typeCar@A4" speedFactor="1.00" vaporized=""/>
    <tripinfo id="A5" depart="3.40" departLane="sc_0" departPos="5.10" departSpeed="10.00" departDelay="0.40" arrival="262.50" arrivalLane="cn_0" arrivalPos="992.80" arrivalSpeed="7.84" duration="259.10" routeLength="1994.90" waitingTime="0.00" waitingCount="0" stopTime="0.00" timeLoss="59.58" rerouteNo="0" devices="tripinfo_A5" vType="typeCar@A5" speedFactor="1.00" vaporized=""/>
    <tripinfo id="A6" depart="6.50" departLane="wc_0" departPos="5.10" departSpeed="10.00" departDelay="2.50" arrival="264.50" arrivalLane="ce_0" arrivalPos="992.80" arrivalSpeed="8.20" duration="258.00" routeLength="1994.90" waitingTime="0.00" waitingCount="0" stopTime="0.00" timeLoss="58.48" rerouteNo="0" devices="tripinfo_A6" vType="typeCar@A6" speedFactor="1.00" vaporized=""/>
    <tripinfo id="A7" depart="6.50" departLane="sc_0" departPos="5.10" departSpeed="10.00" departDelay="2.50" arrival="266.50" arrivalLane="cn_0" arrivalPos="992.80" arrivalSpeed="7.88" duration="260.00" routeLength="1994.90" waitingTime="0.00" waitingCount="0" stopTime="0.00" timeLoss="60.48" rerouteNo="0" devices="tripinfo_A7" vType="typeCar@A7" speedFactor="1.00" vaporized=""/>
    <tripinfo id="A8" depart="9.40" departLane="wc_0" departPos="5.10" departSpeed="10.00" departDelay="4.40" arrival="268.50" arrivalLane="ce_0" arrivalPos="992.80" arrivalSpeed="8.17" duration="259.10" routeLength="1994.90" waitingTime="0.00" waitingCount="0" stopTime="0.00" timeLoss="59.58" rerouteNo="0" devices="tripinfo_A8" vType="typeCar@A8" speedFactor="1.00" vaporized=""/>
    <tripinfo id="A9" depart="9.40" departLane="sc_0" departPos="5.10" departSpeed="10.00" departDelay="4.40" arrival="270.50" arrivalLane="cn_0" arrivalPos="992.80" arrivalSpeed="8.16" duration="261.10" routeLength="1994.90" waitingTime="0.00" waitingCount="0" stopTime="0.00" timeLoss="61.58" rerouteNo="0" devices="tripinfo_A9" vType="typeCar@A9" speedFactor="1.00" vaporized=""/>
    <tripinfo id="B10" depart="12.30" departLane="wc_0" departPos="5.10" departSpeed="10.00" departDelay="6.30" arrival="272.50" arrivalLane="ce_0" arrivalPos="992.80" arrivalSpeed="8.19" duration="260.20" routeLength="1994.90" waitingTime="0.00" waitingCount="0" stopTime="0.00" timeLoss="60.68" rerouteNo="0" devices="tripinfo_B10" vType="typeCar@B10" speedFactor="1.00" vaporized=""/>
    <tripinfo id="B11" depart="12.30" departLane="sc_0" departPos="5.10" departSpeed="10.00" departDelay="6.30" arrival="274.50" arrivalLane="cn_0" arrivalPos="992.80" arrivalSpeed="8.13" duration="262.20" routeLength="1994.90" waitingTime="0.00" waitingCount="0" stopTime="0.00" timeLoss="62.68" rerouteNo="0" devices="tripinfo_B11" vType="typeCar@B11" speedFactor="1.00" vaporized=""/>
    <tripinfo id="B12" depart="15.10" departLane="wc_0" departPos="5.10" departSpeed="10.00" departDelay="8.10" arrival="276.50" arrivalLane="ce_0" arrivalPos="992.80" arrivalSpeed="8.06" duration="261.40" routeLength="1994.90" waitingTime="0.00" waitingCount="0" stopTime="0.00" timeLoss="61.88" rerouteNo="0" devices="tripinfo_B12" vType="typeCar@B12" speedFactor="1.00" vaporized=""/>
    <tripinfo id="B13" depart="15.10" departLane="sc_0" departPos="5.10" departSpeed="10.00" departDelay="8.10" arrival="278.50" arrivalLane="cn_0" arrivalPos="992.80" arrivalSpeed="7.87" duration="263.40" routeLength="1994.90" waitingTime="0.00" waitingCount="0" stopTime="0.00" timeLoss="63.88" rerouteNo="0" devices="tripinfo_B13" vType="typeCar@B13" speedFactor="1.00" vaporized=""/>
    <tripinfo id="B14" depart="18.00" departLane="wc_0" departPos="5.10" departSpeed="10.00" departDelay="10.00" arrival="280.50" arrivalLane="ce_0" arrivalPos="992.80" arrivalSpeed="8.10" duration="262.50" routeLength="1994.90" waitingTime="0.00" waitingCount="0" stopTime="0.00" timeLoss="62.98" rerouteNo="0" devices="tripinfo_B14" vType="typeCar@B14" speedFactor="1.00" vaporized=""/>
    <tripinfo id="B15" depart="18.00" departLane="sc_0" departPos="5.10" departSpeed="10.00" departDelay="10.00" arrival="282.50" arrivalLane="cn_0" arrivalPos="992.80" arrivalSpeed="7.76" duration="264.50" routeLength="1994.90" waitingTime="0.00" waitingCount="0" stopTime="0.00" timeLoss="64.98" rerouteNo="0" devices="tripinfo_B15" vType="typeCar@B15" speedFactor="1.00" vaporized=""/>
    <tripinfo id="B16" depart="20.90" departLane="sc_0" departPos="5.10" departSpeed="10.00" departDelay="11.90" arrival="283.50" arrivalLane="cn_0" arrivalPos="992.80" arrivalSpeed="8.18" duration="262.60" routeLength="1994.90" waitingTime="0.00" waitingCount="0" stopTime="0.00" timeLoss="63.08" rerouteNo="0" devices="tripinfo_B16" vType="typeCar@B16" speedFactor="1.00" vaporized=""/>
    <tripinfo id="B17" depart="20.90" departLane="wc_0" departPos="5.10" departSpeed="10.00" departDelay="9.90" arrival="285.50" arrivalLane="ce_0" arrivalPos="992.80" arrivalSpeed="8.02" duration="264.60" routeLength="1994.90" waitingTime="0.00" waitingCount="0" stopTime="0.00" timeLoss="65.08" rerouteNo="0" devices="tripinfo_B17" vType="typeCar@B17" speedFactor="1.00" vaporized=""/>
    <tripinfo id="B18" depart="23.80" departLane="sc_0" departPos="5.10" departSpeed="10.00" departDelay="12.80" arrival="287.50" arrivalLane="cn_0" arrivalPos="992.80" arrivalSpeed="8.01" duration="263.70" routeLength="1994.90" waitingTime="0.00" waitingCount="0" stopTime="0.00" timeLoss="64.18" rerouteNo="0" devices="tripinfo_B18" vType="typeCar@B18" speedFactor="1.00" vaporized=""/>
    <tripinfo id="B19" depart="26.70" departLane="sc_0" departPos="5.10" departSpeed="10.00" departDelay="14.70" arrival="288.50" arrivalLane="cn_0" arrivalPos="992.80" arrivalSpeed="7.85" duration="261.80" routeLength="1994.90" waitingTime="0.00" waitingCount="0" stopTime="0.00" timeLoss="62.28" rerouteNo="0" devices="tripinfo_B19" vType="typeCar@B19" speedFactor="1.00" vaporized=""/>
    <tripinfo id="C20" depart="23.80" departLane="wc_0" departPos="5.10" departSpeed="10.00" departDelay="10.80" arrival="290.50" arrivalLane="ce_0" arrivalPos="992.80" arrivalSpeed="7.80" duration="266.70" routeLength="1994.90" waitingTime="0.00" waitingCount="0" stopTime="0.00" timeLoss="67.18" rerouteNo="0" devices="tripinfo_C20" vType="typeCar@C20" speedFactor="1.00" vaporized=""/>
    <tripinfo id="C21" depart="29.50" departLane="sc_0" departPos="5.10" departSpeed="10.00" departDelay="16.50" arrival="292.50" arrivalLane="cn_0" arrivalPos="992.80" arrivalSpeed="8.00" duration="263.00" routeLength="1994.90" waitingTime="0.00" waitingCount="0" stopTime="0.00" timeLoss="63.48" rerouteNo="0" devices="tripinfo_C21" vType="typeCar@C21" speedFactor="1.00" vaporized=""/>
    <tripinfo id="C22" depart="26.70" departLane="wc_0" departPos="5.10" departSpeed="10.00" departDelay="10.70" arrival="294.50" arrivalLane="ce_0" arrivalPos="992.80" arrivalSpeed="8.13" duration="267.80" routeLength="1994.90" waitingTime="0.00" waitingCount="0" stopTime="0.00" timeLoss="68.28" rerouteNo="0" devices="tripinfo_C22" vType="typeCar@C22" speedFactor="1.00" vaporized=""/>
    <tripinfo id="C23" depart="29.40" departLane="wc_0" departPos="5.10" departSpeed="10.00" departDelay="12.40" arrival="295.50" arrivalLane="ce_0" arrivalPos="992.80" arrivalSpeed="8.03" duration="266.10" routeLength="1994.90" waitingTime="0.00" waitingCount="0" stopTime="0.00" timeLoss="66.58" rerouteNo="0" devices="tripinfo_C23" vType="typeCar@C23" speedFactor="1.00" vaporized=""/>
    <tripinfo id="C24" depart="32.40" departLane="sc_0" departPos="5.10" departSpeed="10.00" departDelay="15.40" arrival="297.50" arrivalLane="cn_0" arrivalPos="992.80" arrivalSpeed="8.06" duration="265.10" routeLength="1994.90" waitingTime="0.00" waitingCount="0" stopTime="0.00" timeLoss="65.58" rerouteNo="0" devices="tripinfo_C24" vType="typeCar@C24" speedFactor="1.00" vaporized=""/>
    <tripinfo id="C25" depart="35.30" departLane="sc_0" departPos="5.10" departSpeed="10.00" departDelay="16.30" arrival="298.50" arrivalLane="cn_0" arrivalPos="992.80" arrivalSpeed="8.02" duration="263.20" routeLength="1994.90" waitingTime="0.00" waitingCount="0" stopTime="0.00" timeLoss="63.68" rerouteNo="0" devices="tripinfo_C25" vType="typeCar@C25" speedFactor="1.00" vaporized=""/>
    <tripinfo id="C26" depart="32.00" departLane="wc_0" departPos="5.10" departSpeed="10.00" departDelay="12.00" arrival="300.50" arrivalLane="ce_0" arrivalPos="992.80" arrivalSpeed="7.71" duration="268.50" routeLength="1994.90" waitingTime="0.00" waitingCount="0" stopTime="0.00" timeLoss="68.98" rerouteNo="0" devices="tripinfo_C26" vType="typeCar@C26" speedFactor="1.00" vaporized=""/>
    <tripinfo id="C27" depart="38.20" departLane="sc_0" departPos="5.10" departSpeed="10.00" departDelay="18.20" arrival="302.50" arrivalLane="cn_0" arrivalPos="992.80" arrivalSpeed="8.19" duration="264.30" routeLength="1994.90" waitingTime="0.00" waitingCount="0" stopTime="0.00" timeLoss="64.78" rerouteNo="0" devices="tripinfo_C27" vType="typeCar@C27" speedFactor="1.00" vaporized=""/>
    <tripinfo id="C28" depart="34.80" departLane="wc_0" departPos="5.10" departSpeed="10.00" departDelay="13.80" arrival="304.50" arrivalLane="ce_0" arrivalPos="992.80" arrivalSpeed="8.18" duration="269.70" routeLength="1994.90" waitingTime="0.00" waitingCount="0" stopTime="0.00" timeLoss="70.18" rerouteNo="0" devices="tripinfo_C28" vType="typeCar@C28" speedFactor="1.00" vaporized=""/>
    <tripinfo id="C29" depart="41.00" departLane="sc_0" departPos="5.10" departSpeed="10.00" departDelay="20.00" arrival="306.50" arrivalLane="cn_0" arrivalPos="992.80" arrivalSpeed="7.94" duration="265.50" routeLength="1994.90" waitingTime="0.00" waitingCount="0" stopTime="0.00" timeLoss="65.98" rerouteNo="0" devices="tripinfo_C29" vType="typeCar@C29" speedFactor="1.00" vaporized=""/>
    <tripinfo id="D30" depart="37.50" departLane="wc_0" departPos="5.10" departSpeed="10.00" departDelay="15.50" arrival="308.50" arrivalLane="ce_0" arrivalPos="992.80" arrivalSpeed="8.14" duration="271.00" routeLength="1994.90" waitingTime="0.00" waitingCount="0" stopTime="0.00" timeLoss="71.48" rerouteNo="0" devices="tripinfo_D30" vType="typeCar@D30" speedFactor="1.00" vaporized=""/>
    <tripinfo id="D31" depart="43.90" departLane="sc_0" departPos="5.10" departSpeed="10.00" departDelay="21.90" arrival="310.50" arrivalLane="cn_0" arrivalPos="992.80" arrivalSpeed="8.18" duration="266.60" routeLength="1994.90" waitingTime="0.00" waitingCount="0" stopTime="0.00" timeLoss="67.08" rerouteNo="0" devices="tripinfo_D31" vType="typeCar@D31" speedFactor="1.00" vaporized=""/>
    <tripinfo id="D32" depart="40.10" departLane="wc_0" departPos="5.10" departSpeed="10.00" departDelay="17.10" arrival="312.50" arrivalLane="ce_0" arrivalPos="992.80" arrivalSpeed="7.74" duration="272.40" routeLength="1994.90" waitingTime="0.00" waitingCount="0" stopTime="0.00" timeLoss="72.88" rerouteNo="0" devices="tripinfo_D32" vType="typeCar@D32" speedFactor="1.00" vaporized=""/>
    <tripinfo id="D33" depart="46.80" departLane="sc_0" departPos="5.10" departSpeed="10.00" departDelay="23.80" arrival="314.50" arrivalLane="cn_0" arrivalPos="992.80" arrivalSpeed="8.08" duration="267.70" routeLength="1994.90" waitingTime="0.00" waitingCount="0" stopTime="0.00" timeLoss="68.18" rerouteNo="0" devices="tripinfo_D33" vType="typeCar@D33" speedFactor="1.00" vaporized=""/>
    <tripinfo id="D34" depart="42.70" departLane="wc_0" departPos="5.10" departSpeed="10.00" departDelay="18.70" arrival="316.50" arrivalLane="ce_0" arrivalPos="992.80" arrivalSpeed="7.82" duration="273.80" routeLength="1994.90" waitingTime="0.00" waitingCount="0" stopTime="0.00" timeLoss="74.28" rerouteNo="0" devices="tripinfo_D34" vType="typeCar@D34" speedFactor="1.00" vaporized=""/>
    <tripinfo id="D35" depart="49.70" departLane="sc_0" departPos="5.10" departSpeed="10.00" departDelay="25.70" arrival="318.50" arrivalLane="cn_0" arrivalPos="992.80" arrivalSpeed="8.12" duration="268.80" routeLength="1994.90" waitingTime="0.00" waitingCount="0" stopTime="0.00" timeLoss="69.28" rerouteNo="0" devices="tripinfo_D35" vType="typeCar@D35" speedFactor="1.00" vaporized=""/>
    <tripinfo id="D36" depart="45.30" departLane="wc_0" departPos="5.10" departSpeed="10.00" departDelay="20.30" arrival="320.50" arrivalLane="ce_0" arrivalPos="992.80" arrivalSpeed="7.75" duration="275.20" routeLength="1994.90" waitingTime="0.00" waitingCount="0" stopTime="0.00" timeLoss="75.68" rerouteNo="0" devices="tripinfo_D36" vType="typeCar@D36" speedFactor="1.00" vaporized=""/>
    <tripinfo id="D37" depart="52.50" departLane="sc_0" departPos="5.10" departSpeed="10.00" departDelay="27.50" arrival="322.50" arrivalLane="cn_0" arrivalPos="992.80" arrivalSpeed="8.12" duration="270.00" routeLength="1994.90" waitingTime="0.00" waitingCount="0" stopTime="0.00" timeLoss="70.48" rerouteNo="0" devices="tripinfo_D37" vType="typeCar@D37" speedFactor="1.00" vaporized=""/>
    <tripinfo id="D38" depart="47.90" departLane="wc_0" departPos="5.10" departSpeed="10.00" departDelay="21.90" arrival="324.50" arrivalLane="ce_0" arrivalPos="992.80" arrivalSpeed="8.18" duration="276.60" routeLength="1994.90" waitingTime="0.00" waitingCount="0" stopTime="0.00" timeLoss="77.08" rerouteNo="0" devices="tripinfo_D38" vType="typeCar@D38" speedFactor="1.00" vaporized=""/>
    <tripinfo id="D39" depart="50.50" departLane="wc_0" departPos="5.10" departSpeed="10.00" departDelay="23.50" arrival="325.50" arrivalLane="ce_0" arrivalPos="992.80" arrivalSpeed="8.00" duration="275.00" routeLength="1994.90" waitingTime="0.00" waitingCount="0" stopTime="0.00" timeLoss="75.48" rerouteNo="0" devices="tripinfo_D39" vType="typeCar@D39" speedFactor="1.00" vaporized=""/>
    <tripinfo id="E40" depart="53.10" departLane="wc_0" departPos="5.10" departSpeed="10.00" departDelay="25.10" arrival="326.50" arrivalLane="ce_0" arrivalPos="992.80" arrivalSpeed="8.07" duration="273.40" routeLength="1994.90" waitingTime="0.00" waitingCount="0" stopTime="0.00" timeLoss="73.88" rerouteNo="0" devices="tripinfo_E40" vType="typeCar@E40" speedFactor="1.00" vaporized=""/>
    <tripinfo id="E41" depart="55.60" departLane="wc_0" departPos="5.10" departSpeed="10.00" departDelay="26.60" arrival="327.50" arrivalLane="ce_0" arrivalPos="992.80" arrivalSpeed="8.01" duration="271.90" routeLength="1994.90" waitingTime="0.00" waitingCount="0" stopTime="0.00" timeLoss="72.38" rerouteNo="0" devices="tripinfo_E41" vType="typeCar@E41" speedFactor="1.00" vaporized=""/>
    <tripinfo id="E42" depart="55.40" departLane="sc_0" departPos="5.10" departSpeed="10.00" departDelay="26.40" arrival="329.50" arrivalLane="cn_0" arrivalPos="992.80" arrivalSpeed="7.93" duration="274.10" routeLength="1994.90" waitingTime="0.00" waitingCount="0" stopTime="0.00" timeLoss="74.58" rerouteNo="0" devices="tripinfo_E42" vType="typeCar@E42" speedFactor="1.00" vaporized=""/>
    <tripinfo id="E43" depart="58.50" departLane="wc_0" departPos="5.10" departSpeed="10.00" departDelay="27.50" arrival="331.50" arrivalLane="ce_0" arrivalPos="992.80" arrivalSpeed="8.06" duration="273.00" routeLength="1994.90" waitingTime="0.00" waitingCount="0" stopTime="0.00" timeLoss="73.48" rerouteNo="0" devices="tripinfo_E43" vType="typeCar@E43" speedFactor="1.00" vaporized=""/>
    <tripinfo id="E44" depart="61.30" departLane="wc_0" departPos="5.10" departSpeed="10.00" departDelay="28.30" arrival="332.50" arrivalLane="ce_0" arrivalPos="992.80" arrivalSpeed="8.08" duration="271.20" routeLength="1994.90" waitingTime="0.00" waitingCount="0" stopTime="0.00" timeLoss="71.68" rerouteNo="0" devices="tripinfo_E44" vType="typeCar@E44" speedFactor="1.00" vaporized=""/>
    <tripinfo id="E45" depart="58.30" departLane="sc_0" departPos="5.10" departSpeed="10.00" departDelay="25.30" arrival="334.50" arrivalLane="cn_0" arrivalPos="992.80" arrivalSpeed="8.09" duration="276.20" routeLength="1994.90" waitingTime="0.00" waitingCount="0" stopTime="0.00" timeLoss="76.68" rerouteNo="0" devices="tripinfo_E45" vType="typeCar@E45" speedFactor="1.00" vaporized=""/>
    <tripinfo id="E46" depart="64.20" departLane="wc_0" departPos="5.10" departSpeed="10.00" departDelay="30.20" arrival="336.50" arrivalLane="ce_0" arrivalPos="992.80" arrivalSpeed="7.85" duration="272.30" routeLength="1994.90" waitingTime="0.00" waitingCount="0" stopTime="0.00" timeLoss="72.78" rerouteNo="0" devices="tripinfo_E46" vType="typeCar@E46" speedFactor="1.00" vaporized=""/>
    <tripinfo id="E47" depart="61.10" departLane="sc_0" departPos="5.10" departSpeed="10.00" departDelay="27.10" arrival="338.50" arrivalLane="cn_0" arrivalPos="992.80" arrivalSpeed="7.95" duration="277.40" routeLength="1994.90" waitingTime="0.00" waitingCount="0" stopTime="0.00" timeLoss="77.88" rerouteNo="0" devices="tripinfo_E47" vType="typeCar@E47" speedFactor="1.00" vaporized=""/>
    <tripinfo id="E48" depart="67.10" departLane="wc_0" departPos="5.10" departSpeed="10.00" departDelay="32.10" arrival="340.50" arrivalLane="ce_0" arrivalPos="992.80" arrivalSpeed="8.12" duration="273.40" routeLength="1994.90" waitingTime="0.00" waitingCount="0" stopTime="0.00" timeLoss="73.88" rerouteNo="0" devices="tripinfo_E48" vType="typeCar@E48" speedFactor="1.00" vaporized=""/>
    <tripinfo id="E49" depart="63.80" departLane="sc_0" departPos="5.10" departSpeed="10.00" departDelay="27.80" arrival="342.50" arrivalLane="cn_0" arrivalPos="992.80" arrivalSpeed="8.12" duration="278.70" routeLength="1994.90" waitingTime="0.00" waitingCount="0" stopTime="0.00" timeLoss="79.18" rerouteNo="0" devices="tripinfo_E49" vType="typeCar@E49" speedFactor="1.00" vaporized=""/>
    <tripinfo id="F50" depart="70.00" departLane="wc_0" departPos="5.10" departSpeed="10.00" departDelay="33.00" arrival="344.50" arrivalLane="ce_0" arrivalPos="992.80" arrivalSpeed="8.04" duration="274.50" routeLength="1994.90" waitingTime="0.00" waitingCount="0" stopTime="0.00" timeLoss="74.98" rerouteNo="0" devices="tripinfo_F50" vType="typeCar@F50" speedFactor="1.00" vaporized=""/>
    <tripinfo id="F51" depart="66.50" departLane="sc_0" departPos="5.10" departSpeed="10.00" departDelay="29.50" arrival="346.50" arrivalLane="cn_0" arrivalPos="992.80" arrivalSpeed="7.97" duration="280.00" routeLength="1994.90" waitingTime="0.00" waitingCount="0" stopTime="0.00" timeLoss="80.48" rerouteNo="0" devices="tripinfo_F51" vType="typeCar@F51" speedFactor="1.00" vaporized=""/>
    <tripinfo id="F52" depart="69.10" departLane="sc_0" departPos="5.10" departSpeed="10.00" departDelay="31.10" arrival="347.50" arrivalLane="cn_0" arrivalPos="992.80" arrivalSpeed="8.19" duration="278.40" routeLength="1994.90" waitingTime="0.00" waitingCount="0" stopTime="0.00" timeLoss="78.88" rerouteNo="0" devices="tripinfo_F52" vType="typeCar@F52" speedFactor="1.00" vaporized=""/>
    <tripinfo id="F53" depart="72.80" departLane="wc_0" departPos="5.10" departSpeed="10.00" departDelay="33.80" arrival="349.50" arrivalLane="ce_0" arrivalPos="992.80" arrivalSpeed="8.13" duration="276.70" routeLength="1994.90" waitingTime="0.00" waitingCount="0" stopTime="0.00" timeLoss="77.18" rerouteNo="0" devices="tripinfo_F53" vType="typeCar@F53" speedFactor="1.00" vaporized=""/>
    <tripinfo id="F54" depart="71.70" departLane="sc_0" departPos="5.10" departSpeed="10.00" departDelay="32.70" arrival="351.50" arrivalLane="cn_0" arrivalPos="992.80" arrivalSpeed="7.86" duration="279.80" routeLength="1994.90" waitingTime="0.00" waitingCount="0" stopTime="0.00" timeLoss="80.28" rerouteNo="0" devices="tripinfo_F54" vType="typeCar@F54" speedFactor="1.00" vaporized=""/>
    <tripinfo id="F55" depart="75.70" departLane="wc_0" departPos="5.10" departSpeed="10.00" departDelay="35.70" arrival="353.50" arrivalLane="ce_0" arrivalPos="992.80" arrivalSpeed="7.88" duration="277.80" routeLength="1994.90" waitingTime="0.00" waitingCount="0" stopTime="0.00" timeLoss="78.28" rerouteNo="0" devices="tripinfo_F55" vType="typeCar@F55" speedFactor="1.00" vaporized=""/>
    <tripinfo id="F56" depart="74.30" departLane="sc_0" departPos="5.10" departSpeed="10.00" departDelay="34.30" arrival="355.50" arrivalLane="cn_0" arrivalPos="992.80" arrivalSpeed="7.80" duration="281.20" routeLength="1994.90" waitingTime="0.00" waitingCount="0" stopTime="0.00" timeLoss="81.68" rerouteNo="0" devices="tripinfo_F56" vType="typeCar@F56" speedFactor="1.00" vaporized=""/>
    <tripinfo id="F57" depart="78.60" departLane="wc_0" departPos="5.10" departSpeed="10.00" departDelay="37.60" arrival="357.50" arrivalLane="ce_0" arrivalPos="992.80" arrivalSpeed="7.97" duration="278.90" routeLength="1994.90" waitingTime="0.00" waitingCount="0" stopTime="0.00" timeLoss="79.38" rerouteNo="0" devices="tripinfo_F57" vType="typeCar@F57" speedFactor="1.00" vaporized=""/>
    <tripinfo id="F58" depart="81.50" departLane="wc_0" departPos="5.10" departSpeed="10.00" departDelay="39.50" arrival="358.50" arrivalLane="ce_0" arrivalPos="992.80" arrivalSpeed="8.02" duration="277.00" routeLength="1994.90" waitingTime="0.00" waitingCount="0" stopTime="0.00" timeLoss="77.48" rerouteNo="0" devices="tripinfo_F58" vType="typeCar@F58" speedFactor="1.00" vaporized=""/>
    <tripinfo id="F59" depart="77.00" departLane="sc_0" departPos="5.10" departSpeed="10.00" departDelay="35.00" arrival="360.50" arrivalLane="cn_0" arrivalPos="992.80" arrivalSpeed="7.80" duration="283.50" routeLength="1994.90" waitingTime="0.00" waitingCount="0" stopTime="0.00" timeLoss="83.98" rerouteNo="0" devices="tripinfo_F59" vType="typeCar@F59" speedFactor="1.00" vaporized=""/>
    <tripinfo id="G60" depart="79.70" departLane="sc_0" departPos="5.10" departSpeed="10.00" departDelay="36.70" arrival="361.50" arrivalLane="cn_0" arrivalPos="992.80" arrivalSpeed="8.17" duration="281.80" routeLength="1994.90" waitingTime="0.00" waitingCount="0" stopTime="0.00" timeLoss="82.28" rerouteNo="0" devices="tripinfo_G60" vType="typeCar@G60" speedFactor="1.00" vaporized=""/>
    <tripinfo id="G61" depart="84.30" departLane="wc_0" departPos="5.10" departSpeed="10.00" departDelay="40.30" arrival="363.50" arrivalLane="ce_0" arrivalPos="992.80" arrivalSpeed="8.08" duration="279.20" routeLength="1994.90" waitingTime="0.00" waitingCount="0" stopTime="0.00" timeLoss="79.68" rerouteNo="0" devices="tripinfo_G61" vType="typeCar@G61" speedFactor="1.00" vaporized=""/>
    <tripinfo id="G62" depart="82.40" departLane="sc_0" departPos="5.10" departSpeed="10.00" departDelay="38.40" arrival="365.50" arrivalLane="cn_0" arrivalPos="992.80" arrivalSpeed="8.15" duration="283.10" routeLength="1994.90" waitingTime="0.00" waitingCount="0" stopTime="0.00" timeLoss="83.58" rerouteNo="0" devices="tripinfo_G62" vType="typeCar@G62" speedFactor="1.00" vaporized=""/>
    <tripinfo id="G63" depart="87.20" departLane="wc_0" departPos="5.10" departSpeed="10.00" departDelay="42.20" arrival="367.50" arrivalLane="ce_0" arrivalPos="992.80" arrivalSpeed="8.08" duration="280.30" routeLength="1994.90" waitingTime="0.00" waitingCount="0" stopTime="0.00" timeLoss="80.78" rerouteNo="0" devices="tripinfo_G63" vType="typeCar@G63" speedFactor="1.00" vaporized=""/>
    <tripinfo id="G64" depart="90.10" departLane="wc_0" departPos="5.10" departSpeed="10.00" departDelay="44.10" arrival="368.50" arrivalLane="ce_0" arrivalPos="992.80" arrivalSpeed="8.16" duration="278.40" routeLength="1994.90" waitingTime="0.00" waitingCount="0" stopTime="0.00" timeLoss="78.88" rerouteNo="0" devices="tripinfo_G64" vType="typeCar@G64" speedFactor="1.00" vaporized=""/>
    <tripinfo id="G65" depart="85.00" departLane="sc_0" departPos="5.10" departSpeed="10.00" departDelay="39.00" arrival="370.50" arrivalLane="cn_0" arrivalPos="992.80" arrivalSpeed="8.18" duration="285.50" routeLength="1994.90" waitingTime="0.00" waitingCount="0" stopTime="0.00" timeLoss="85.98" rerouteNo="0" devices="tripinfo_G65" vType="typeCar@G65" speedFactor="1.00" vaporized=""/>
    <tripinfo id="G66" depart="93.00" departLane="wc_0" departPos="5.10" departSpeed="10.00" departDelay="46.00" arrival="372.50" arrivalLane="ce_0" arrivalPos="992.80" arrivalSpeed="8.19" duration="279.50" routeLength="1994.90" waitingTime="0.00" waitingCount="0" stopTime="0.00" timeLoss="79.98" rerouteNo="0" devices="tripinfo_G66" vType="typeCar@G66" speedFactor="1.00" vaporized=""/>
    <tripinfo id="G67" depart="87.70" departLane="sc_0" departPos="5.10" departSpeed="10.00" departDelay="40.70" arrival="374.50" arrivalLane="cn_0" arrivalPos="992.80" arrivalSpeed="8.09" duration="286.80" routeLength="1994.90" waitingTime="0.00" waitingCount="0" stopTime="0.00" timeLoss="87.28" rerouteNo="0" devices="tripinfo_G67" vType="typeCar@G67" speedFactor="1.00" vaporized=""/>
    <tripinfo id="G68" depart="90.40" departLane="sc_0" departPos="5.10" departSpeed="10.00" departDelay="42.40" arrival="375.50" arrivalLane="cn_0" arrivalPos="992.80" arrivalSpeed="8.18" duration="285.10" routeLength="1994.90" waitingTime="0.00" waitingCount="0" stopTime="0.00" timeLoss="85.58" rerouteNo="0" devices="tripinfo_G68" vType="typeCar@G68" speedFactor="1.00" vaporized=""/>
    <tripinfo id="G69" depart="95.80" departLane="wc_0" departPos="5.10" departSpeed="10.00" departDelay="45.80" arrival="377.50" arrivalLane="ce_0" arrivalPos="992.80" arrivalSpeed="8.02" duration="281.70" routeLength="1994.90" waitingTime="0.00" waitingCount="0" stopTime="0.00" timeLoss="82.18" rerouteNo="0" devices="tripinfo_G69" vType="typeCar@G69" speedFactor="1.00" vaporized=""/>
    <tripinfo id="H70" depart="98.70" departLane="wc_0" departPos="5.10" departSpeed="10.00" departDelay="47.70" arrival="378.50" arrivalLane="ce_0" arrivalPos="992.80" arrivalSpeed="8.12" duration="279.80" routeLength="1994.90" waitingTime="0.00" waitingCount="0" stopTime="0.00" timeLoss="80.28" rerouteNo="0" devices="tripinfo_H70" vType="typeCar@H70" speedFactor="1.00" vaporized=""/>
    <tripinfo id="H71" depart="93.00" departLane="sc_0" departPos="5.10" departSpeed="10.00" departDelay="42.00" arrival="380.50" arrivalLane="cn_0" arrivalPos="992.80" arrivalSpeed="7.93" duration="287.50" routeLength="1994.90" waitingTime="0.00" waitingCount="0" stopTime="0.00" timeLoss="87.98" rerouteNo="0" devices="tripinfo_H71" vType="typeCar@H71" speedFactor="1.00" vaporized=""/>
    <tripinfo id="H72" depart="101.60" departLane="wc_0" departPos="5.10" departSpeed="10.00" departDelay="49.60" arrival="382.50" arrivalLane="ce_0" arrivalPos="992.80" arrivalSpeed="7.94" duration="280.90" routeLength="1994.90" waitingTime="0.00" waitingCount="0" stopTime="0.00" timeLoss="81.38" rerouteNo="0" devices="tripinfo_H72" vType="typeCar@H72" speedFactor="1.00" vaporized=""/>
    <tripinfo id="H73" depart="104.50" departLane="wc_0" departPos="5.10" departSpeed="10.00" departDelay="51.50" arrival="383.50" arrivalLane="ce_0" arrivalPos="992.80" arrivalSpeed="7.90" duration="279.00" routeLength="1994.90" waitingTime="0.00" waitingCount="0" stopTime="0.00" timeLoss="79.48" rerouteNo="0" devices="tripinfo_H73" vType="typeCar@H73" speedFactor="1.00" vaporized=""/>