<?xml version="1.0" encoding="UTF-8"?>

<!-- generated on 2022-07-30 15:36:40 by Eclipse SUMO GUI Version 1.13.0
<configuration xmlns:xsi="http://www.w3.org/2001/XMLSchema-instance" xsi:noNamespaceSchemaLocation="http://sumo.dlr.de/xsd/sumoConfiguration.xsd">

    <input>
        <net-file value="net.net.xml"/>
        <route-files value="routes.rou.xml"/>
    </input>

    <output>
        <tripinfo-output value="raw_data/(4,1,0)tripinfo.xml"/>
    </output>

    <time>
        <begin value="0"/>
        <step-length value="0.1"/>
    </time>

    <processing>
        <collision.action value="warn"/>
        <collision.stoptime value="1"/>
        <collision.mingap-factor value="1"/>
    </processing>

    <report>
        <verbose value="false"/>
        <log value="log.txt"/>
        <duration-log.statistics value="true"/>
        <no-step-log value="true"/>
    </report>

    <traci_server>
        <remote-port value="12044"/>
    </traci_server>

    <gui_only>
        <tracker-interval value="0.1"/>
    </gui_only>

</configuration>
-->

<tripinfos xmlns:xsi="http://www.w3.org/2001/XMLSchema-instance" xsi:noNamespaceSchemaLocation="http://sumo.dlr.de/xsd/tripinfo_file.xsd">
    <tripinfo id="A0" depart="0.00" departLane="sc_0" departPos="5.10" departSpeed="10.00" departDelay="0.00" arrival="252.50" arrivalLane="cn_0" arrivalPos="992.80" arrivalSpeed="8.13" duration="252.50" routeLength="1994.90" waitingTime="0.00" waitingCount="0" stopTime="0.00" timeLoss="52.98" rerouteNo="0" devices="tripinfo_A0" vType="typeCar@A0" speedFactor="1.00" vaporized=""/>
    <tripinfo id="A1" depart="1.70" departLane="sc_0" departPos="5.10" departSpeed="10.00" departDelay="0.70" arrival="253.50" arrivalLane="cn_0" arrivalPos="992.80" arrivalSpeed="8.15" duration="251.80" routeLength="1994.90" waitingTime="0.00" waitingCount="0" stopTime="0.00" timeLoss="52.28" rerouteNo="0" devices="tripinfo_A1" vType="typeCar@A1" speedFactor="1.00" vaporized=""/>
    <tripinfo id="A2" depart="3.40" departLane="sc_0" departPos="5.10" departSpeed="10.00" departDelay="1.40" arrival="254.50" arrivalLane="cn_0" arrivalPos="992.80" arrivalSpeed="8.14" duration="251.10" routeLength="1994.90" waitingTime="0.00" waitingCount="0" stopTime="0.00" timeLoss="51.58" rerouteNo="0" devices="tripinfo_A2" vType="typeCar@A2" speedFactor="1.00" vaporized=""/>
    <tripinfo id="A3" depart="6.50" departLane="sc_0" departPos="5.10" departSpeed="10.00" departDelay="3.50" arrival="255.50" arrivalLane="cn_0" arrivalPos="992.80" arrivalSpeed="8.12" duration="249.00" routeLength="1994.90" waitingTime="0.00" waitingCount="0" stopTime="0.00" timeLoss="49.48" rerouteNo="0" devices="tripinfo_A3" vType="typeCar@A3" speedFactor="1.00" vaporized=""/>
    <tripinfo id="A4" depart="9.40" departLane="sc_0" departPos="5.10" departSpeed="10.00" departDelay="5.40" arrival="256.50" arrivalLane="cn_0" arrivalPos="992.80" arrivalSpeed="7.92" duration="247.10" routeLength="1994.90" waitingTime="0.00" waitingCount="0" stopTime="0.00" timeLoss="47.58" rerouteNo="0" devices="tripinfo_A4" vType="typeCar@A4" speedFactor="1.00" vaporized=""/>
    <tripinfo id="A5" depart="11.30" departLane="sc_0" departPos="5.10" departSpeed="10.00" departDelay="6.30" arrival="257.50" arrivalLane="cn_0" arrivalPos="992.80" arrivalSpeed="8.08" duration="246.20" routeLength="1994.90" waitingTime="0.00" waitingCount="0" stopTime="0.00" timeLoss="46.68" rerouteNo="0" devices="tripinfo_A5" vType="typeCar@A5" speedFactor="1.00" vaporized=""/>
    <tripinfo id="A6" depart="6.00" departLane="wc_0" departPos="5.10" departSpeed="10.00" departDelay="0.00" arrival="259.50" arrivalLane="ce_0" arrivalPos="992.80" arrivalSpeed="8.16" duration="253.50" routeLength="1994.90" waitingTime="0.00" waitingCount="0" stopTime="0.00" timeLoss="53.98" rerouteNo="0" devices="tripinfo_A6" vType="typeCar@A6" speedFactor="1.00" vaporized=""/>
    <tripinfo id="A7" depart="13.00" departLane="sc_0" departPos="5.10" departSpeed="10.00" departDelay="7.00" arrival="261.50" arrivalLane="cn_0" arrivalPos="992.80" arrivalSpeed="8.14" duration="248.50" routeLength="1994.90" waitingTime="0.00" waitingCount="0" stopTime="0.00" timeLoss="48.98" rerouteNo="0" devices="tripinfo_A7" vType="typeCar@A7" speedFactor="1.00" vaporized=""/>
    <tripinfo id="A8" depart="14.70" departLane="sc_0" departPos="5.10" departSpeed="10.00" departDelay="7.70" arrival="262.50" arrivalLane="cn_0" arrivalPos="992.80" arrivalSpeed="8.17" duration="247.80" routeLength="1994.90" waitingTime="0.00" waitingCount="0" stopTime="0.00" timeLoss="48.28" rerouteNo="0" devices="tripinfo_A8" vType="typeCar@A8" speedFactor="1.00" vaporized=""/>
    <tripinfo id="A9" depart="16.40" departLane="sc_0" departPos="5.10" departSpeed="10.00" departDelay="8.40" arrival="263.50" arrivalLane="cn_0" arrivalPos="992.80" arrivalSpeed="7.71" duration="247.10" routeLength="1994.90" waitingTime="0.00" waitingCount="0" stopTime="0.00" timeLoss="47.58" rerouteNo="0" devices="tripinfo_A9" vType="typeCar@A9" speedFactor="1.00" vaporized=""/>
    <tripinfo id="B10" depart="18.30" departLane="sc_0" departPos="5.10" departSpeed="10.00" departDelay="9.30" arrival="264.50" arrivalLane="cn_0" arrivalPos="992.80" arrivalSpeed="7.87" duration="246.20" routeLength="1994.90" waitingTime="0.00" waitingCount="0" stopTime="0.00" timeLoss="46.68" rerouteNo="0" devices="tripinfo_B10" vType="typeCar@B10" speedFactor="1.00" vaporized=""/>
    <tripinfo id="B11" depart="20.00" departLane="sc_0" departPos="5.10" departSpeed="10.00" departDelay="10.00" arrival="265.50" arrivalLane="cn_0" arrivalPos="992.80" arrivalSpeed="8.16" duration="245.50" routeLength="1994.90" waitingTime="0.00" waitingCount="0" stopTime="0.00" timeLoss="45.98" rerouteNo="0" devices="tripinfo_B11" vType="typeCar@B11" speedFactor="1.00" vaporized=""/>
    <tripinfo id="B12" depart="21.70" departLane="sc_0" departPos="5.10" departSpeed="10.00" departDelay="10.70" arrival="266.50" arrivalLane="cn_0" arrivalPos="992.80" arrivalSpeed="8.02" duration="244.80" routeLength="1994.90" waitingTime="0.00" waitingCount="0" stopTime="0.00" timeLoss="45.28" rerouteNo="0" devices="tripinfo_B12" vType="typeCar@B12" speedFactor="1.00" vaporized=""/>
    <tripinfo id="B13" depart="23.40" departLane="sc_0" departPos="5.10" departSpeed="10.00" departDelay="11.40" arrival="267.50" arrivalLane="cn_0" arrivalPos="992.80" arrivalSpeed="8.12" duration="244.10" routeLength="1994.90" waitingTime="0.00" waitingCount="0" stopTime="0.00" timeLoss="44.58" rerouteNo="0" devices="tripinfo_B13" vType="typeCar@B13" speedFactor="1.00" vaporized=""/>
    <tripinfo id="B14" depart="13.00" departLane="wc_0" departPos="5.10" departSpeed="10.00" departDelay="0.00" arrival="269.50" arrivalLane="ce_0" arrivalPos="992.80" arrivalSpeed="8.02" duration="256.50" routeLength="1994.90" waitingTime="0.00" waitingCount="0" stopTime="0.00" timeLoss="56.98" rerouteNo="0" devices="tripinfo_B14" vType="typeCar@B14" speedFactor="1.00" vaporized=""/>
    <tripinfo id="B15" depart="25.10" departLane="sc_0" departPos="5.10" departSpeed="10.00" departDelay="12.10" arrival="271.50" arrivalLane="cn_0" arrivalPos="992.80" arrivalSpeed="7.98" duration="246.40" routeLength="1994.90" waitingTime="0.00" waitingCount="0" stopTime="0.00" timeLoss="46.88" rerouteNo="0" devices="tripinfo_B15" vType="typeCar@B15" speedFactor="1.00" vaporized=""/>
    <tripinfo id="B16" depart="26.80" departLane="sc_0" departPos="5.10" departSpeed="10.00" departDelay="12.80" arrival="272.50" arrivalLane="cn_0" arrivalPos="992.80" arrivalSpeed="7.89" duration="245.70" routeLength="1994.90" waitingTime="0.00" waitingCount="0" stopTime="0.00" timeLoss="46.18" rerouteNo="0" devices="tripinfo_B16" vType="typeCar@B16" speedFactor="1.00" vaporized=""/>
    <tripinfo id="B17" depart="28.50" departLane="sc_0" departPos="5.10" departSpeed="10.00" departDelay="13.50" arrival="273.50" arrivalLane="cn_0" arrivalPos="992.80" arrivalSpeed="8.13" duration="245.00" routeLength="1994.90" waitingTime="0.00" waitingCount="0" stopTime="0.00" timeLoss="45.48" rerouteNo="0" devices="tripinfo_B17" vType="typeCar@B17" speedFactor="1.00" vaporized=""/>
    <tripinfo id="B18" depart="30.20" departLane="sc_0" departPos="5.10" departSpeed="10.00" departDelay="13.20" arrival="274.50" arrivalLane="cn_0" arrivalPos="992.80" arrivalSpeed="8.13" duration="244.30" routeLength="1994.90" waitingTime="0.00" waitingCount="0" stopTime="0.00" timeLoss="44.78" rerouteNo="0" devices="tripinfo_B18" vType="typeCar@B18" speedFactor="1.00" vaporized=""/>
    <tripinfo id="B19" depart="31.90" departLane="sc_0" departPos="5.10" departSpeed="10.00" departDelay="13.90" arrival="275.50" arrivalLane="cn_0" arrivalPos="992.80" arrivalSpeed="7.71" duration="243.60" routeLength="1994.90" waitingTime="0.00" waitingCount="0" stopTime="0.00" timeLoss="44.08" rerouteNo="0" devices="tripinfo_B19" vType="typeCar@B19" speedFactor="1.00" vaporized=""/>
    <tripinfo id="C20" depart="33.60" departLane="sc_0" departPos="5.10" departSpeed="10.00" departDelay="14.60" arrival="276.50" arrivalLane="cn_0" arrivalPos="992.80" arrivalSpeed="8.13" duration="242.90" routeLength="1994.90" waitingTime="0.00" waitingCount="0" stopTime="0.00" timeLoss="43.38" rerouteNo="0" devices="tripinfo_C20" vType="typeCar@C20" speedFactor="1.00" vaporized=""/>
    <tripinfo id="C21" depart="35.30" departLane="sc_0" departPos="5.10" departSpeed="10.00" departDelay="15.30" arrival="277.50" arrivalLane="cn_0" arrivalPos="992.80" arrivalSpeed="7.77" duration="242.20" routeLength="1994.90" waitingTime="0.00" waitingCount="0" stopTime="0.00" timeLoss="42.68" rerouteNo="0" devices="tripinfo_C21" vType="typeCar@C21" speedFactor="1.00" vaporized=""/>
    <tripinfo id="C22" depart="37.00" departLane="sc_0" departPos="5.10" departSpeed="10.00" departDelay="16.00" arrival="278.50" arrivalLane="cn_0" arrivalPos="992.80" arrivalSpeed="8.15" duration="241.50" routeLength="1994.90" waitingTime="0.00" waitingCount="0" stopTime="0.00" timeLoss="41.98" rerouteNo="0" devices="tripinfo_C22" vType="typeCar@C22" speedFactor="1.00" vaporized=""/>
    <tripinfo id="C23" depart="22.00" departLane="wc_0" departPos="5.10" departSpeed="10.00" departDelay="0.00" arrival="280.50" arrivalLane="ce_0" arrivalPos="992.80" arrivalSpeed="8.02" duration="258.50" routeLength="1994.90" waitingTime="0.00" waitingCount="0" stopTime="0.00" timeLoss="58.98" rerouteNo="0" devices="tripinfo_C23" vType="typeCar@C23" speedFactor="1.00" vaporized=""/>
    <tripinfo id="C24" depart="38.70" departLane="sc_0" departPos="5.10" departSpeed="10.00" departDelay="16.70" arrival="282.50" arrivalLane="cn_0" arrivalPos="992.80" arrivalSpeed="8.08" duration="243.80" routeLength="1994.90" waitingTime="0.00" waitingCount="0" stopTime="0.00" timeLoss="44.28" rerouteNo="0" devices="tripinfo_C24" vType="typeCar@C24" speedFactor="1.00" vaporized=""/>
    <tripinfo id="C25" depart="23.70" departLane="wc_0" departPos="5.10" departSpeed="10.00" departDelay="0.70" arrival="284.50" arrivalLane="ce_0" arrivalPos="992.80" arrivalSpeed="7.87" duration="260.80" routeLength="1994.90" waitingTime="0.00" waitingCount="0" stopTime="0.00" timeLoss="61.28" rerouteNo="0" devices="tripinfo_C25" vType="typeCar@C25" speedFactor="1.00" vaporized=""/>
    <tripinfo id="C26" depart="40.40" departLane="sc_0" departPos="5.10" departSpeed="10.00" departDelay="17.40" arrival="286.50" arrivalLane="cn_0" arrivalPos="992.80" arrivalSpeed="7.75" duration="246.10" routeLength="1994.90" waitingTime="0.00" waitingCount="0" stopTime="0.00" timeLoss="46.58" rerouteNo="0" devices="tripinfo_C26" vType="typeCar@C26" speedFactor="1.00" vaporized=""/>
    <tripinfo id="C27" depart="42.10" departLane="sc_0" departPos="5.10" departSpeed="10.00" departDelay="18.10" arrival="287.50" arrivalLane="cn_0" arrivalPos="992.80" arrivalSpeed="8.08" duration="245.40" routeLength="1994.90" waitingTime="0.00" waitingCount="0" stopTime="0.00" timeLoss="45.88" rerouteNo="0" devices="tripinfo_C27" vType="typeCar@C27" speedFactor="1.00" vaporized=""/>
    <tripinfo id="C28" depart="43.80" departLane="sc_0" departPos="5.10" departSpeed="10.00" departDelay="18.80" arrival="288.50" arrivalLane="cn_0" arrivalPos="992.80" arrivalSpeed="7.83" duration="244.70" routeLength="1994.90" waitingTime="0.00" waitingCount="0" stopTime="0.00" timeLoss="45.18" rerouteNo="0" devices="tripinfo_C28" vType="typeCar@C28" speedFactor="1.00" vaporized=""/>
    <tripinfo id="C29" depart="45.50" departLane="sc_0" departPos="5.10" departSpeed="10.00" departDelay="18.50" arrival="289.50" arrivalLane="cn_0" arrivalPos="992.80" arrivalSpeed="7.96" duration="244.00" routeLength="1994.90" waitingTime="0.00" waitingCount="0" stopTime="0.00" timeLoss="44.48" rerouteNo="0" devices="tripinfo_C29" vType="typeCar@C29" speedFactor="1.00" vaporized=""/>
    <tripinfo id="D30" depart="28.00" departLane="wc_0" departPos="5.10" departSpeed="10.00" departDelay="0.00" arrival="291.50" arrivalLane="ce_0" arrivalPos="992.80" arrivalSpeed="7.90" duration="263.50" routeLength="1994.90" waitingTime="0.00" waitingCount="0" stopTime="0.00" timeLoss="63.98" rerouteNo="0" devices="tripinfo_D30" vType="typeCar@D30" speedFactor="1.00" vaporized=""/>
    <tripinfo id="D31" depart="47.20" departLane="sc_0" departPos="5.10" departSpeed="10.00" departDelay="19.20" arrival="293.50" arrivalLane="cn_0" arrivalPos="992.80" arrivalSpeed="7.85" duration="246.30" routeLength="1994.90" waitingTime="0.00" waitingCount="0" stopTime="0.00" timeLoss="46.78" rerouteNo="0" devices="tripinfo_D31" vType="typeCar@D31" speedFactor="1.00" vaporized=""/>
    <tripinfo id="D32" depart="29.70" departLane="wc_0" departPos="5.10" departSpeed="10.00" departDelay="0.70" arrival="295.50" arrivalLane="ce_0" arrivalPos="992.80" arrivalSpeed="7.79" duration="265.80" routeLength="1994.90" waitingTime="0.00" waitingCount="0" stopTime="0.00" timeLoss="66.28" rerouteNo="0" devices="tripinfo_D32" vType="typeCar@D32" speedFactor="1.00" vaporized=""/>
    <tripinfo id="D33" depart="48.90" departLane="sc_0" departPos="5.10" departSpeed="10.00" departDelay="19.90" arrival="297.50" arrivalLane="cn_0" arrivalPos="992.80" arrivalSpeed="7.85" duration="248.60" routeLength="1994.90" waitingTime="0.00" waitingCount="0" stopTime="0.00" timeLoss="49.08" rerouteNo="0" devices="tripinfo_D33" vType="typeCar@D33" speedFactor="1.00" vaporized=""/>
    <tripinfo id="D34" depart="50.60" departLane="sc_0" departPos="5.10" departSpeed="10.00" departDelay="20.60" arrival="298.50" arrivalLane="cn_0" arrivalPos="992.80" arrivalSpeed="8.01" duration="247.90" routeLength="1994.90" waitingTime="0.00" waitingCount="0" stopTime="0.00" timeLoss="48.38" rerouteNo="0" devices="tripinfo_D34" vType="typeCar@D34" speedFactor="1.00" vaporized=""/>
    <tripinfo id="D35" depart="52.30" departLane="sc_0" departPos="5.10" departSpeed="10.00" departDelay="21.30" arrival="299.50" arrivalLane="cn_0" arrivalPos="992.80" arrivalSpeed="7.81" duration="247.20" routeLength="1994.90" waitingTime="0.00" waitingCount="0" stopTime="0.00" timeLoss="47.68" rerouteNo="0" devices="tripinfo_D35" vType="typeCar@D35" speedFactor="1.00" vaporized=""/>
    <tripinfo id="D36" depart="54.20" departLane="sc_0" departPos="5.10" departSpeed="10.00" departDelay="22.20" arrival="300.50" arrivalLane="cn_0" arrivalPos="992.80" arrivalSpeed="7.81" duration="246.30" routeLength="1994.90" waitingTime="0.00" waitingCount="0" stopTime="0.00" timeLoss="46.78" rerouteNo="0" devices="tripinfo_D36" vType="typeCar@D36" speedFactor="1.00" vaporized=""/>
    <tripinfo id="D37" depart="55.90" departLane="sc_0" departPos="5.10" departSpeed="10.00" departDelay="22.90" arrival="301.50" arrivalLane="cn_0" arrivalPos="992.80" arrivalSpeed="8.08" duration="245.60" routeLength="1994.90" waitingTime="0.00" waitingCount="0" stopTime="0.00" timeLoss="46.08" rerouteNo="0" devices="tripinfo_D37" vType="typeCar@D37" speedFactor="1.00" vaporized=""/>
    <tripinfo id="D38" depart="57.60" departLane="sc_0" departPos="5.10" departSpeed="10.00" departDelay="23.60" arrival="302.50" arrivalLane="cn_0" arrivalPos="992.80" arrivalSpeed="8.02" duration="244.90" routeLength="1994.90" waitingTime="0.00" waitingCount="0" stopTime="0.00" timeLoss="45.38" rerouteNo="0" devices="tripinfo_D38" vType="typeCar@D38" speedFactor="1.00" vaporized=""/>
    <tripinfo id="D39" depart="59.30" departLane="sc_0" departPos="5.10" departSpeed="10.00" departDelay="23.30" arrival="303.50" arrivalLane="cn_0" arrivalPos="992.80" arrivalSpeed="8.08" duration="244.20" routeLength="1994.90" waitingTime="0.00" waitingCount="0" stopTime="0.00" timeLoss="44.68" rerouteNo="0" devices="tripinfo_D39" vType="typeCar@D39" speedFactor="1.00" vaporized=""/>
    <tripinfo id="E40" depart="61.00" departLane="sc_0" departPos="5.10" departSpeed="10.00" departDelay="24.00" arrival="304.50" arrivalLane="cn_0" arrivalPos="992.80" arrivalSpeed="8.18" duration="243.50" routeLength="1994.90" waitingTime="0.00" waitingCount="0" stopTime="0.00" timeLoss="43.98" rerouteNo="0" devices="tripinfo_E40" vType="typeCar@E40" speedFactor="1.00" vaporized=""/>
    <tripinfo id="E41" depart="62.70" departLane="sc_0" departPos="5.10" departSpeed="10.00" departDelay="24.70" arrival="305.50" arrivalLane="cn_0" arrivalPos="992.80" arrivalSpeed="7.84" duration="242.80" routeLength="1994.90" waitingTime="0.00" waitingCount="0" stopTime="0.00" timeLoss="43.28" rerouteNo="0" devices="tripinfo_E41" vType="typeCar@E41" speedFactor="1.00" vaporized=""/>
    <tripinfo id="E42" depart="64.40" departLane="sc_0" departPos="5.10" departSpeed="10.00" departDelay="25.40" arrival="306.50" arrivalLane="cn_0" arrivalPos="992.80" arrivalSpeed="8.05" duration="242.10" routeLength="1994.90" waitingTime="0.00" waitingCount="0" stopTime="0.00" timeLoss="42.58" rerouteNo="0" devices="tripinfo_E42" vType="typeCar@E42" speedFactor="1.00" vaporized=""/>
    <tripinfo id="E43" depart="66.10" departLane="sc_0" departPos="5.10" departSpeed="10.00" departDelay="26.10" arrival="307.50" arrivalLane="cn_0" arrivalPos="992.80" arrivalSpeed="8.04" duration="241.40" routeLength="1994.90" waitingTime="0.00" waitingCount="0" stopTime="0.00" timeLoss="41.88" rerouteNo="0" devices="tripinfo_E43" vType="typeCar@E43" speedFactor="1.00" vaporized=""/>
    <tripinfo id="E44" depart="67.80" departLane="sc_0" departPos="5.10" departSpeed="10.00" departDelay="25.80" arrival="308.50" arrivalLane="cn_0" arrivalPos="992.80" arrivalSpeed="7.80" duration="240.70" routeLength="1994.90" waitingTime="0.00" waitingCount="0" stopTime="0.00" timeLoss="41.18" rerouteNo="0" devices="tripinfo_E44" vType="typeCar@E44" speedFactor="1.00" vaporized=""/>
    <tripinfo id="E45" depart="69.50" departLane="sc_0" departPos="5.10" departSpeed="10.00" departDelay="26.50" arrival="309.50" arrivalLane="cn_0" arrivalPos="992.80" arrivalSpeed="8.14" duration="240.00" routeLength="1994.90" waitingTime="0.00" waitingCount="0" stopTime="0.00" timeLoss="40.48" rerouteNo="0" devices="tripinfo_E45" vType="typeCar@E45" speedFactor="1.00" vaporized=""/>
    <tripinfo id="E46" depart="44.00" departLane="wc_0" departPos="5.10" departSpeed="10.00" departDelay="0.00" arrival="311.50" arrivalLane="ce_0" arrivalPos="992.80" arrivalSpeed="8.10" duration="267.50" routeLength="1994.90" waitingTime="0.00" waitingCount="0" stopTime="0.00" timeLoss="67.98" rerouteNo="0" devices="tripinfo_E46" vType="typeCar@E46" speedFactor="1.00" vaporized=""/>
    <tripinfo id="E47" depart="71.20" departLane="sc_0" departPos="5.10" departSpeed="10.00" departDelay="27.20" arrival="313.50" arrivalLane="cn_0" arrivalPos="992.80" arrivalSpeed="8.06" duration="242.30" routeLength="1994.90" waitingTime="0.00" waitingCount="0" stopTime="0.00" timeLoss="42.78" rerouteNo="0" devices="tripinfo_E47" vType="typeCar@E47" speedFactor="1.00" vaporized=""/>
    <tripinfo id="E48" depart="45.70" departLane="wc_0" departPos="5.10" departSpeed="10.00" departDelay="0.70" arrival="315.50" arrivalLane="ce_0" arrivalPos="992.80" arrivalSpeed="8.15" duration="269.80" routeLength="1994.90" waitingTime="0.00" waitingCount="0" stopTime="0.00" timeLoss="70.28" rerouteNo="0" devices="tripinfo_E48" vType="typeCar@E48" speedFactor="1.00" vaporized=""/>
    <tripinfo id="E49" depart="72.90" departLane="sc_0" departPos="5.10" departSpeed="10.00" departDelay="27.90" arrival="317.50" arrivalLane="cn_0" arrivalPos="992.80" arrivalSpeed="7.84" duration="244.60" routeLength="1994.90" waitingTime="0.00" waitingCount="0" stopTime="0.00" timeLoss="45.08" rerouteNo="0" devices="tripinfo_E49" vType="typeCar@E49" speedFactor="1.00" vaporized=""/>
    <tripinfo id="F50" depart="74.60" departLane="sc_0" departPos="5.10" departSpeed="10.00" departDelay="28.60" arrival="318.50" arrivalLane="cn_0" arrivalPos="992.80" arrivalSpeed="8.16" duration="243.90" routeLength="1994.90" waitingTime="0.00" waitingCount="0" stopTime="0.00" timeLoss="44.38" rerouteNo="0" devices="tripinfo_F50" vType="typeCar@F50" speedFactor="1.00" vaporized=""/>
    <tripinfo id="F51" depart="47.40" departLane="wc_0" departPos="5.10" departSpeed="10.00" departDelay="0.40" arrival="320.50" arrivalLane="ce_0" arrivalPos="992.80" arrivalSpeed="8.18" duration="273.10" routeLength="1994.90" waitingTime="0.00" waitingCount="0" stopTime="0.00" timeLoss="73.58" rerouteNo="0" devices="tripinfo_F51" vType="typeCar@F51" speedFactor="1.00" vaporized=""/>
    <tripinfo id="F52" depart="76.30" departLane="sc_0" departPos="5.10" departSpeed="10.00" departDelay="29.30" arrival="322.50" arrivalLane="cn_0" arrivalPos="992.80" arrivalSpeed="8.09" duration="246.20" routeLength="1994.90" waitingTime="0.00" waitingCount="0" stopTime="0.00" timeLoss="46.68" rerouteNo="0" devices="tripinfo_F52" vType="typeCar@F52" speedFactor="1.00" vaporized=""/>
    <tripinfo id="F53" depart="78.00" departLane="sc_0" departPos="5.10" departSpeed="10.00" departDelay="30.00" arrival="323.50" arrivalLane="cn_0" arrivalPos="992.80" arrivalSpeed="7.98" duration="245.50" routeLength="1994.90" waitingTime="0.00" waitingCount="0" stopTime="0.00" timeLoss="45.98" rerouteNo="0" devices="tripinfo_F53" vType="typeCar@F53" speedFactor="1.00" vaporized=""/>
    <tripinfo id="F54" depart="50.00" departLane="wc_0" departPos="5.10" departSpeed="10.00" departDelay="0.00" arrival="325.50" arrivalLane="ce_0" arrivalPos="992.80" arrivalSpeed="8.10" duration="275.50" routeLength="1994.90" waitingTime="0.00" waitingCount="0" stopTime="0.00" timeLoss="75.98" rerouteNo="0" devices="tripinfo_F54" vType="typeCar@F54" speedFactor="1.00" vaporized=""/>
    <tripinfo id="F55" depart="79.70" departLane="sc_0" departPos="5.10" departSpeed="10.00" departDelay="29.70" arrival="327.50" arrivalLane="cn_0" arrivalPos="992.80" arrivalSpeed="7.87" duration="247.80" routeLength="1994.90" waitingTime="0.00" waitingCount="0" stopTime="0.00" timeLoss="48.28" rerouteNo="0" devices="tripinfo_F55" vType="typeCar@F55" speedFactor="1.00" vaporized=""/>
    <tripinfo id="F56" depart="81.40" departLane="sc_0" departPos="5.10" departSpeed="10.00" departDelay="30.40" arrival="328.50" arrivalLane="cn_0" arrivalPos="992.80" arrivalSpeed="7.96" duration="247.10" routeLength="1994.90" waitingTime="0.00" waitingCount="0" stopTime="0.00" timeLoss="47.58" rerouteNo="0" devices="tripinfo_F56" vType="typeCar@F56" speedFactor="1.00" vaporized=""/>
    <tripinfo id="F57" depart="83.10" departLane="sc_0" departPos="5.10" departSpeed="10.00" departDelay="31.10" arrival="329.50" arrivalLane="cn_0" arrivalPos="992.80" arrivalSpeed="7.83" duration="246.40" routeLength="1994.90" waitingTime="0.00" waitingCount="0" stopTime="0.00" timeLoss="46.88" rerouteNo="0" devices="tripinfo_F57" vType="typeCar@F57" speedFactor="1.00" vaporized=""/>
    <tripinfo id="F58" depart="53.00" departLane="wc_0" departPos="5.10" departSpeed="10.00" departDelay="0.00" arrival="331.50" arrivalLane="ce_0" arrivalPos="992.80" arrivalSpeed="8.14" duration="278.50" routeLength="1994.90" waitingTime="0.00" waitingCount="0" stopTime="0.00" timeLoss="78.98" rerouteNo="0" devices="tripinfo_F58" vType="typeCar@F58" speedFactor="1.00" vaporized=""/>
    <tripinfo id="F59" depart="84.80" departLane="sc_0" departPos="5.10" departSpeed="10.00" departDelay="31.80" arrival="333.50" arrivalLane="cn_0" arrivalPos="992.80" arrivalSpeed="8.03" duration="248.70" routeLength="1994.90" waitingTime="0.00" waitingCount="0" stopTime="0.00" timeLoss="49.18" rerouteNo="0" devices="tripinfo_F59" vType="typeCar@F59" speedFactor="1.00" vaporized=""/>
    <tripinfo id="G60" depart="86.50" departLane="sc_0" departPos="5.10" departSpeed="10.00" departDelay="31.50" arrival="334.50" arrivalLane="cn_0" arrivalPos="992.80" arrivalSpeed="8.04" duration="248.00" routeLength="1994.90" waitingTime="0.00" waitingCount="0" stopTime="0.00" timeLoss="48.48" rerouteNo="0" devices="tripinfo_G60" vType="typeCar@G60" speedFactor="1.00" vaporized=""/>
    <tripinfo id="G61" depart="88.20" departLane="sc_0" departPos="5.10" departSpeed="10.00" departDelay="32.20" arrival="335.50" arrivalLane="cn_0" arrivalPos="992.80" arrivalSpeed="7.96" duration="247.30" routeLength="1994.90" waitingTime="0.00" waitingCount="0" stopTime="0.00" timeLoss="47.78" rerouteNo="0" devices="tripinfo_G61" vType="typeCar@G61" speedFactor="1.00" vaporized=""/>
    <tripinfo id="G62" depart="90.20" departLane="sc_0" departPos="5.10" departSpeed="10.00" departDelay="32.20" arrival="336.50" arrivalLane="cn_0" arrivalPos="992.80" arrivalSpeed="8.11" duration="246.30" routeLength="1994.90" waitingTime="0.00" waitingCount="0" stopTime="0.00" timeLoss="46.78" rerouteNo="0" devices="tripinfo_G62" vType="typeCar@G62" speedFactor="1.00" vaporized=""/>
    <tripinfo id="G63" depart="91.90" departLane="sc_0" departPos="5.10" departSpeed="10.00" departDelay="32.90" arrival="337.50" arrivalLane="cn_0" arrivalPos="992.80" arrivalSpeed="8.14" duration="245.60" routeLength="1994.90" waitingTime="0.00" waitingCount="0" stopTime="0.00" timeLoss="46.08" rerouteNo="0" devices="tripinfo_G63" vType="typeCar@G63" speedFactor="1.00" vaporized=""/>
    <tripinfo id="G64" depart="93.60" departLane="sc_0" departPos="5.10" departSpeed="10.00" departDelay="33.60" arrival="338.50" arrivalLane="cn_0" arrivalPos="992.80" arrivalSpeed="8.07" duration="244.90" routeLength="1994.90" waitingTime="0.00" waitingCount="0" stopTime="0.00" timeLoss="45.38" rerouteNo="0" devices="tripinfo_G64" vType="typeCar@G64" speedFactor="1.00" vaporized=""/>
    <tripinfo id="G65" depart="95.30" departLane="sc_0" departPos="5.10" departSpeed="10.00" departDelay="34.30" arrival="339.50" arrivalLane="cn_0" arrivalPos="992.80" arrivalSpeed="7.78" duration="244.20" routeLength="1994.90" waitingTime="0.00" waitingCount="0" stopTime="0.00" timeLoss="44.68" rerouteNo="0" devices="tripinfo_G65" vType="typeCar@G65" speedFactor="1.00" vaporized=""/>
    <tripinfo id="G66" depart="62.00" departLane="wc_0" departPos="5.10" departSpeed="10.00" departDelay="0.00" arrival="341.50" arrivalLane="ce_0" arrivalPos="992.80" arrivalSpeed="7.98" duration="279.50" routeLength="1994.90" waitingTime="0.00" waitingCount="0" stopTime="0.00" timeLoss="79.98" rerouteNo="0" devices="tripinfo_G66" vType="typeCar@G66" speedFactor="1.00" vaporized=""/>
    <tripinfo id="G67" depart="97.00" departLane="sc_0" departPos="5.10" departSpeed="10.00" departDelay="35.00" arrival="343.50" arrivalLane="cn_0" arrivalPos="992.80" arrivalSpeed="7.97" duration="246.50" routeLength="1994.90" waitingTime="0.00" waitingCount="0" stopTime="0.00" timeLoss="46.98" rerouteNo="0" devices="tripinfo_G67" vType="typeCar@G67" speedFactor="1.00" vaporized=""/>
    <tripinfo id="G68" depart="63.70" departLane="wc_0" departPos="5.10" departSpeed="10.00" departDelay="0.70" arrival="345.50" arrivalLane="ce_0" arrivalPos="992.80" arrivalSpeed="7.88" duration="281.80" routeLength="1994.90" waitingTime="0.00" waitingCount="0" stopTime="0.00" timeLoss="82.28" rerouteNo="0" devices="tripinfo_G68" vType="typeCar@G68" speedFactor="1.00" vaporized=""/>
    <tripinfo id="G69" depart="98.70" departLane="sc_0" departPos="5.10" departSpeed="10.00" departDelay="33.70" arrival="347.50" arrivalLane="cn_0" arrivalPos="992.80" arrivalSpeed="8.06" duration="248.80" routeLength="1994.90" waitingTime="0.00" waitingCount="0" stopTime="0.00" timeLoss="49.28" rerouteNo="0" devices="tripinfo_G69" vType="typeCar@G69" speedFactor="1.00" vaporized=""/>
    <tripinfo id="H70" depart="67.00" departLane="wc_0" departPos="5.10" departSpeed="10.00" departDelay="0.00" arrival="349.50" arrivalLane="ce_0" arrivalPos="992.80" arrivalSpeed="8.08" duration="282.50" routeLength="1994.90" waitingTime="0.00" waitingCount="0" stopTime="0.00" timeLoss="82.98" rerouteNo="0" devices="tripinfo_H70" vType="typeCar@H70" speedFactor="1.00" vaporized=""/>
    <tripinfo id="H71" depart="100.40" departLane="sc_0" departPos="5.10" departSpeed="10.00" departDelay="33.40" arrival="351.50" arrivalLane="cn_0" arrivalPos="992.80" arrivalSpeed="8.19" duration="251.10" routeLength="1994.90" waitingTime="0.00" waitingCount="0" stopTime="0.00" timeLoss="51.58" rerouteNo="0" devices="tripinfo_H71" vType="typeCar@H71" speedFactor="1.00" vaporized=""/>
    <tripinfo id="H72" depart="68.70" departLane="wc_0" departPos="5.10" departSpeed="10.00" departDelay="0.70" arrival="353.50" arrivalLane="ce_0" arrivalPos="992.80" arrivalSpeed="7.90" duration="284.80" routeLength="1994.90" waitingTime="0.00" waitingCount="0" stopTime="0.00" timeLoss="85.28" rerouteNo="0" devices="tripinfo_H72" vType="typeCar@H72" speedFactor="1.00" vaporized=""/>
    <tripinfo id="H73" depart="102.10" departLane="sc_0" departPos="5.10" departSpeed="10.00" departDelay="34.10" arrival="355.50" arrivalLane="cn_0" arrivalPos="992.80" arrivalSpeed="8.11" duration="253.40" routeLength="1994.90" waitingTime="0.00" waitingCount="0" stopTime="0.00" timeLoss="53.88" rerouteNo="0" devices="tripinfo_H73" vType="typeCar@H73" speedFactor="1.00" vaporized=""/>