<?xml version="1.0" encoding="UTF-8"?>

<!-- generated on 2022-07-30 15:39:49 by Eclipse SUMO GUI Version 1.13.0
<configuration xmlns:xsi="http://www.w3.org/2001/XMLSchema-instance" xsi:noNamespaceSchemaLocation="http://sumo.dlr.de/xsd/sumoConfiguration.xsd">

    <input>
        <net-file value="net.net.xml"/>
        <route-files value="routes.rou.xml"/>
    </input>

    <output>
        <tripinfo-output value="raw_data/(4,2,0)tripinfo.xml"/>
    </output>

    <time>
        <begin value="0"/>
        <step-length value="0.1"/>
    </time>

    <processing>
        <collision.action value="warn"/>
        <collision.stoptime value="1"/>
        <collision.mingap-factor value="1"/>
    </processing>

    <report>
        <verbose value="false"/>
        <log value="log.txt"/>
        <duration-log.statistics value="true"/>
        <no-step-log value="true"/>
    </report>

    <traci_server>
        <remote-port value="12266"/>
    </traci_server>

    <gui_only>
        <tracker-interval value="0.1"/>
    </gui_only>

</configuration>
-->

<tripinfos xmlns:xsi="http://www.w3.org/2001/XMLSchema-instance" xsi:noNamespaceSchemaLocation="http://sumo.dlr.de/xsd/tripinfo_file.xsd">
    <tripinfo id="A0" depart="0.00" departLane="sc_0" departPos="5.10" departSpeed="10.00" departDelay="0.00" arrival="252.50" arrivalLane="cn_0" arrivalPos="992.80" arrivalSpeed="8.13" duration="252.50" routeLength="1994.90" waitingTime="0.00" waitingCount="0" stopTime="0.00" timeLoss="52.98" rerouteNo="0" devices="tripinfo_A0" vType="typeCar@A0" speedFactor="1.00" vaporized=""/>
    <tripinfo id="A1" depart="1.00" departLane="wc_0" departPos="5.10" departSpeed="10.00" departDelay="0.00" arrival="254.50" arrivalLane="ce_0" arrivalPos="992.80" arrivalSpeed="8.04" duration="253.50" routeLength="1994.90" waitingTime="0.00" waitingCount="0" stopTime="0.00" timeLoss="53.98" rerouteNo="0" devices="tripinfo_A1" vType="typeCar@A1" speedFactor="1.00" vaporized=""/>
    <tripinfo id="A2" depart="1.70" departLane="sc_0" departPos="5.10" departSpeed="10.00" departDelay="0.70" arrival="256.50" arrivalLane="cn_0" arrivalPos="992.80" arrivalSpeed="8.15" duration="254.80" routeLength="1994.90" waitingTime="0.00" waitingCount="0" stopTime="0.00" timeLoss="55.28" rerouteNo="0" devices="tripinfo_A2" vType="typeCar@A2" speedFactor="1.00" vaporized=""/>
    <tripinfo id="A3" depart="3.40" departLane="sc_0" departPos="5.10" departSpeed="10.00" departDelay="1.40" arrival="257.50" arrivalLane="cn_0" arrivalPos="992.80" arrivalSpeed="8.03" duration="254.10" routeLength="1994.90" waitingTime="0.00" waitingCount="0" stopTime="0.00" timeLoss="54.58" rerouteNo="0" devices="tripinfo_A3" vType="typeCar@A3" speedFactor="1.00" vaporized=""/>
    <tripinfo id="A4" depart="6.50" departLane="sc_0" departPos="5.10" departSpeed="10.00" departDelay="3.50" arrival="258.50" arrivalLane="cn_0" arrivalPos="992.80" arrivalSpeed="8.09" duration="252.00" routeLength="1994.90" waitingTime="0.00" waitingCount="0" stopTime="0.00" timeLoss="52.48" rerouteNo="0" devices="tripinfo_A4" vType="typeCar@A4" speedFactor="1.00" vaporized=""/>
    <tripinfo id="A5" depart="9.40" departLane="sc_0" departPos="5.10" departSpeed="10.00" departDelay="5.40" arrival="259.50" arrivalLane="cn_0" arrivalPos="992.80" arrivalSpeed="8.01" duration="250.10" routeLength="1994.90" waitingTime="0.00" waitingCount="0" stopTime="0.00" timeLoss="50.58" rerouteNo="0" devices="tripinfo_A5" vType="typeCar@A5" speedFactor="1.00" vaporized=""/>
    <tripinfo id="A6" depart="5.00" departLane="wc_0" departPos="5.10" departSpeed="10.00" departDelay="0.00" arrival="261.50" arrivalLane="ce_0" arrivalPos="992.80" arrivalSpeed="8.01" duration="256.50" routeLength="1994.90" waitingTime="0.00" waitingCount="0" stopTime="0.00" timeLoss="56.98" rerouteNo="0" devices="tripinfo_A6" vType="typeCar@A6" speedFactor="1.00" vaporized=""/>
    <tripinfo id="A7" depart="12.30" departLane="sc_0" departPos="5.10" departSpeed="10.00" departDelay="7.30" arrival="263.50" arrivalLane="cn_0" arrivalPos="992.80" arrivalSpeed="7.88" duration="251.20" routeLength="1994.90" waitingTime="0.00" waitingCount="0" stopTime="0.00" timeLoss="51.68" rerouteNo="0" devices="tripinfo_A7" vType="typeCar@A7" speedFactor="1.00" vaporized=""/>
    <tripinfo id="A8" depart="6.70" departLane="wc_0" departPos="5.10" departSpeed="10.00" departDelay="0.70" arrival="265.50" arrivalLane="ce_0" arrivalPos="992.80" arrivalSpeed="7.94" duration="258.80" routeLength="1994.90" waitingTime="0.00" waitingCount="0" stopTime="0.00" timeLoss="59.28" rerouteNo="0" devices="tripinfo_A8" vType="typeCar@A8" speedFactor="1.00" vaporized=""/>
    <tripinfo id="A9" depart="14.80" departLane="sc_0" departPos="5.10" departSpeed="10.00" departDelay="8.80" arrival="267.50" arrivalLane="cn_0" arrivalPos="992.80" arrivalSpeed="7.93" duration="252.70" routeLength="1994.90" waitingTime="0.00" waitingCount="0" stopTime="0.00" timeLoss="53.18" rerouteNo="0" devices="tripinfo_A9" vType="typeCar@A9" speedFactor="1.00" vaporized=""/>
    <tripinfo id="B10" depart="16.60" departLane="sc_0" departPos="5.10" departSpeed="10.00" departDelay="9.60" arrival="268.50" arrivalLane="cn_0" arrivalPos="992.80" arrivalSpeed="8.16" duration="251.90" routeLength="1994.90" waitingTime="0.00" waitingCount="0" stopTime="0.00" timeLoss="52.38" rerouteNo="0" devices="tripinfo_B10" vType="typeCar@B10" speedFactor="1.00" vaporized=""/>
    <tripinfo id="B11" depart="8.60" departLane="wc_0" departPos="5.10" departSpeed="10.00" departDelay="0.60" arrival="270.50" arrivalLane="ce_0" arrivalPos="992.80" arrivalSpeed="8.11" duration="261.90" routeLength="1994.90" waitingTime="0.00" waitingCount="0" stopTime="0.00" timeLoss="62.38" rerouteNo="0" devices="tripinfo_B11" vType="typeCar@B11" speedFactor="1.00" vaporized=""/>
    <tripinfo id="B12" depart="19.60" departLane="sc_0" departPos="5.10" departSpeed="10.00" departDelay="11.60" arrival="272.50" arrivalLane="cn_0" arrivalPos="992.80" arrivalSpeed="8.11" duration="252.90" routeLength="1994.90" waitingTime="0.00" waitingCount="0" stopTime="0.00" timeLoss="53.38" rerouteNo="0" devices="tripinfo_B12" vType="typeCar@B12" speedFactor="1.00" vaporized=""/>
    <tripinfo id="B13" depart="22.50" departLane="sc_0" departPos="5.10" departSpeed="10.00" departDelay="13.50" arrival="273.50" arrivalLane="cn_0" arrivalPos="992.80" arrivalSpeed="8.10" duration="251.00" routeLength="1994.90" waitingTime="0.00" waitingCount="0" stopTime="0.00" timeLoss="51.48" rerouteNo="0" devices="tripinfo_B13" vType="typeCar@B13" speedFactor="1.00" vaporized=""/>
    <tripinfo id="B14" depart="25.40" departLane="sc_0" departPos="5.10" departSpeed="10.00" departDelay="15.40" arrival="274.50" arrivalLane="cn_0" arrivalPos="992.80" arrivalSpeed="8.13" duration="249.10" routeLength="1994.90" waitingTime="0.00" waitingCount="0" stopTime="0.00" timeLoss="49.58" rerouteNo="0" devices="tripinfo_B14" vType="typeCar@B14" speedFactor="1.00" vaporized=""/>
    <tripinfo id="B15" depart="11.00" departLane="wc_0" departPos="5.10" departSpeed="10.00" departDelay="0.00" arrival="276.50" arrivalLane="ce_0" arrivalPos="992.80" arrivalSpeed="8.18" duration="265.50" routeLength="1994.90" waitingTime="0.00" waitingCount="0" stopTime="0.00" timeLoss="65.98" rerouteNo="0" devices="tripinfo_B15" vType="typeCar@B15" speedFactor="1.00" vaporized=""/>
    <tripinfo id="B16" depart="28.30" departLane="sc_0" departPos="5.10" departSpeed="10.00" departDelay="17.30" arrival="278.50" arrivalLane="cn_0" arrivalPos="992.80" arrivalSpeed="8.07" duration="250.20" routeLength="1994.90" waitingTime="0.00" waitingCount="0" stopTime="0.00" timeLoss="50.68" rerouteNo="0" devices="tripinfo_B16" vType="typeCar@B16" speedFactor="1.00" vaporized=""/>
    <tripinfo id="B17" depart="30.30" departLane="sc_0" departPos="5.10" departSpeed="10.00" departDelay="18.30" arrival="279.50" arrivalLane="cn_0" arrivalPos="992.80" arrivalSpeed="8.12" duration="249.20" routeLength="1994.90" waitingTime="0.00" waitingCount="0" stopTime="0.00" timeLoss="49.68" rerouteNo="0" devices="tripinfo_B17" vType="typeCar@B17" speedFactor="1.00" vaporized=""/>
    <tripinfo id="B18" depart="13.20" departLane="wc_0" departPos="5.10" departSpeed="10.00" departDelay="0.20" arrival="281.50" arrivalLane="ce_0" arrivalPos="992.80" arrivalSpeed="7.83" duration="268.30" routeLength="1994.90" waitingTime="0.00" waitingCount="0" stopTime="0.00" timeLoss="68.78" rerouteNo="0" devices="tripinfo_B18" vType="typeCar@B18" speedFactor="1.00" vaporized=""/>
    <tripinfo id="B19" depart="32.00" departLane="sc_0" departPos="5.10" departSpeed="10.00" departDelay="19.00" arrival="283.50" arrivalLane="cn_0" arrivalPos="992.80" arrivalSpeed="8.16" duration="251.50" routeLength="1994.90" waitingTime="0.00" waitingCount="0" stopTime="0.00" timeLoss="51.98" rerouteNo="0" devices="tripinfo_B19" vType="typeCar@B19" speedFactor="1.00" vaporized=""/>
    <tripinfo id="C20" depart="34.50" departLane="sc_0" departPos="5.10" departSpeed="10.00" departDelay="20.50" arrival="284.50" arrivalLane="cn_0" arrivalPos="992.80" arrivalSpeed="8.05" duration="250.00" routeLength="1994.90" waitingTime="0.00" waitingCount="0" stopTime="0.00" timeLoss="50.48" rerouteNo="0" devices="tripinfo_C20" vType="typeCar@C20" speedFactor="1.00" vaporized=""/>
    <tripinfo id="C21" depart="36.80" departLane="sc_0" departPos="5.10" departSpeed="10.00" departDelay="21.80" arrival="285.50" arrivalLane="cn_0" arrivalPos="992.80" arrivalSpeed="7.83" duration="248.70" routeLength="1994.90" waitingTime="0.00" waitingCount="0" stopTime="0.00" timeLoss="49.18" rerouteNo="0" devices="tripinfo_C21" vType="typeCar@C21" speedFactor="1.00" vaporized=""/>
    <tripinfo id="C22" depart="17.00" departLane="wc_0" departPos="5.10" departSpeed="10.00" departDelay="0.00" arrival="287.50" arrivalLane="ce_0" arrivalPos="992.80" arrivalSpeed="8.14" duration="270.50" routeLength="1994.90" waitingTime="0.00" waitingCount="0" stopTime="0.00" timeLoss="70.98" rerouteNo="0" devices="tripinfo_C22" vType="typeCar@C22" speedFactor="1.00" vaporized=""/>
    <tripinfo id="C23" depart="39.70" departLane="sc_0" departPos="5.10" departSpeed="10.00" departDelay="22.70" arrival="289.50" arrivalLane="cn_0" arrivalPos="992.80" arrivalSpeed="8.15" duration="249.80" routeLength="1994.90" waitingTime="0.00" waitingCount="0" stopTime="0.00" timeLoss="50.28" rerouteNo="0" devices="tripinfo_C23" vType="typeCar@C23" speedFactor="1.00" vaporized=""/>
    <tripinfo id="C24" depart="41.40" departLane="sc_0" departPos="5.10" departSpeed="10.00" departDelay="23.40" arrival="290.50" arrivalLane="cn_0" arrivalPos="992.80" arrivalSpeed="8.07" duration="249.10" routeLength="1994.90" waitingTime="0.00" waitingCount="0" stopTime="0.00" timeLoss="49.58" rerouteNo="0" devices="tripinfo_C24" vType="typeCar@C24" speedFactor="1.00" vaporized=""/>
    <tripinfo id="C25" depart="43.10" departLane="sc_0" departPos="5.10" departSpeed="10.00" departDelay="24.10" arrival="291.50" arrivalLane="cn_0" arrivalPos="992.80" arrivalSpeed="7.71" duration="248.40" routeLength="1994.90" waitingTime="0.00" waitingCount="0" stopTime="0.00" timeLoss="48.88" rerouteNo="0" devices="tripinfo_C25" vType="typeCar@C25" speedFactor="1.00" vaporized=""/>
    <tripinfo id="C26" depart="45.70" departLane="sc_0" departPos="5.10" departSpeed="10.00" departDelay="25.70" arrival="292.50" arrivalLane="cn_0" arrivalPos="992.80" arrivalSpeed="7.90" duration="246.80" routeLength="1994.90" waitingTime="0.00" waitingCount="0" stopTime="0.00" timeLoss="47.28" rerouteNo="0" devices="tripinfo_C26" vType="typeCar@C26" speedFactor="1.00" vaporized=""/>
    <tripinfo id="C27" depart="21.00" departLane="wc_0" departPos="5.10" departSpeed="10.00" departDelay="0.00" arrival="294.50" arrivalLane="ce_0" arrivalPos="992.80" arrivalSpeed="8.08" duration="273.50" routeLength="1994.90" waitingTime="0.00" waitingCount="0" stopTime="0.00" timeLoss="73.98" rerouteNo="0" devices="tripinfo_C27" vType="typeCar@C27" speedFactor="1.00" vaporized=""/>
    <tripinfo id="C28" depart="47.40" departLane="sc_0" departPos="5.10" departSpeed="10.00" departDelay="26.40" arrival="296.50" arrivalLane="cn_0" arrivalPos="992.80" arrivalSpeed="7.96" duration="249.10" routeLength="1994.90" waitingTime="0.00" waitingCount="0" stopTime="0.00" timeLoss="49.58" rerouteNo="0" devices="tripinfo_C28" vType="typeCar@C28" speedFactor="1.00" vaporized=""/>
    <tripinfo id="C29" depart="22.70" departLane="wc_0" departPos="5.10" departSpeed="10.00" departDelay="0.70" arrival="298.50" arrivalLane="ce_0" arrivalPos="992.80" arrivalSpeed="8.08" duration="275.80" routeLength="1994.90" waitingTime="0.00" waitingCount="0" stopTime="0.00" timeLoss="76.28" rerouteNo="0" devices="tripinfo_C29" vType="typeCar@C29" speedFactor="1.00" vaporized=""/>
    <tripinfo id="D30" depart="49.10" departLane="sc_0" departPos="5.10" departSpeed="10.00" departDelay="27.10" arrival="300.50" arrivalLane="cn_0" arrivalPos="992.80" arrivalSpeed="8.15" duration="251.40" routeLength="1994.90" waitingTime="0.00" waitingCount="0" stopTime="0.00" timeLoss="51.88" rerouteNo="0" devices="tripinfo_D30" vType="typeCar@D30" speedFactor="1.00" vaporized=""/>
    <tripinfo id="D31" depart="24.40" departLane="wc_0" departPos="5.10" departSpeed="10.00" departDelay="1.40" arrival="302.50" arrivalLane="ce_0" arrivalPos="992.80" arrivalSpeed="8.17" duration="278.10" routeLength="1994.90" waitingTime="0.00" waitingCount="0" stopTime="0.00" timeLoss="78.58" rerouteNo="0" devices="tripinfo_D31" vType="typeCar@D31" speedFactor="1.00" vaporized=""/>
    <tripinfo id="D32" depart="50.80" departLane="sc_0" departPos="5.10" departSpeed="10.00" departDelay="27.80" arrival="304.50" arrivalLane="cn_0" arrivalPos="992.80" arrivalSpeed="8.09" duration="253.70" routeLength="1994.90" waitingTime="0.00" waitingCount="0" stopTime="0.00" timeLoss="54.18" rerouteNo="0" devices="tripinfo_D32" vType="typeCar@D32" speedFactor="1.00" vaporized=""/>
    <tripinfo id="D33" depart="53.80" departLane="sc_0" departPos="5.10" departSpeed="10.00" departDelay="29.80" arrival="305.50" arrivalLane="cn_0" arrivalPos="992.80" arrivalSpeed="8.14" duration="251.70" routeLength="1994.90" waitingTime="0.00" waitingCount="0" stopTime="0.00" timeLoss="52.18" rerouteNo="0" devices="tripinfo_D33" vType="typeCar@D33" speedFactor="1.00" vaporized=""/>
    <tripinfo id="D34" depart="26.50" departLane="wc_0" departPos="5.10" departSpeed="10.00" departDelay="1.50" arrival="307.50" arrivalLane="ce_0" arrivalPos="992.80" arrivalSpeed="7.84" duration="281.00" routeLength="1994.90" waitingTime="0.00" waitingCount="0" stopTime="0.00" timeLoss="81.48" rerouteNo="0" devices="tripinfo_D34" vType="typeCar@D34" speedFactor="1.00" vaporized=""/>
    <tripinfo id="D35" depart="56.70" departLane="sc_0" departPos="5.10" departSpeed="10.00" departDelay="31.70" arrival="309.50" arrivalLane="cn_0" arrivalPos="992.80" arrivalSpeed="8.11" duration="252.80" routeLength="1994.90" waitingTime="0.00" waitingCount="0" stopTime="0.00" timeLoss="53.28" rerouteNo="0" devices="tripinfo_D35" vType="typeCar@D35" speedFactor="1.00" vaporized=""/>
    <tripinfo id="D36" depart="28.70" departLane="wc_0" departPos="5.10" departSpeed="10.00" departDelay="2.70" arrival="311.50" arrivalLane="ce_0" arrivalPos="992.80" arrivalSpeed="8.05" duration="282.80" routeLength="1994.90" waitingTime="0.00" waitingCount="0" stopTime="0.00" timeLoss="83.28" rerouteNo="0" devices="tripinfo_D36" vType="typeCar@D36" speedFactor="1.00" vaporized=""/>
    <tripinfo id="D37" depart="59.60" departLane="sc_0" departPos="5.10" departSpeed="10.00" departDelay="32.60" arrival="313.50" arrivalLane="cn_0" arrivalPos="992.80" arrivalSpeed="8.05" duration="253.90" routeLength="1994.90" waitingTime="0.00" waitingCount="0" stopTime="0.00" timeLoss="54.38" rerouteNo="0" devices="tripinfo_D37" vType="typeCar@D37" speedFactor="1.00" vaporized=""/>
    <tripinfo id="D38" depart="31.00" departLane="wc_0" departPos="5.10" departSpeed="10.00" departDelay="3.00" arrival="315.50" arrivalLane="ce_0" arrivalPos="992.80" arrivalSpeed="8.18" duration="284.50" routeLength="1994.90" waitingTime="0.00" waitingCount="0" stopTime="0.00" timeLoss="84.98" rerouteNo="0" devices="tripinfo_D38" vType="typeCar@D38" speedFactor="1.00" vaporized=""/>
    <tripinfo id="D39" depart="62.50" departLane="sc_0" departPos="5.10" departSpeed="10.00" departDelay="34.50" arrival="317.50" arrivalLane="cn_0" arrivalPos="992.80" arrivalSpeed="8.03" duration="255.00" routeLength="1994.90" waitingTime="0.00" waitingCount="0" stopTime="0.00" timeLoss="55.48" rerouteNo="0" devices="tripinfo_D39" vType="typeCar@D39" speedFactor="1.00" vaporized=""/>
    <tripinfo id="E40" depart="33.40" departLane="wc_0" departPos="5.10" departSpeed="10.00" departDelay="4.40" arrival="319.50" arrivalLane="ce_0" arrivalPos="992.80" arrivalSpeed="7.97" duration="286.10" routeLength="1994.90" waitingTime="0.00" waitingCount="0" stopTime="0.00" timeLoss="86.58" rerouteNo="0" devices="tripinfo_E40" vType="typeCar@E40" speedFactor="1.00" vaporized=""/>
    <tripinfo id="E41" depart="65.30" departLane="sc_0" departPos="5.10" departSpeed="10.00" departDelay="36.30" arrival="321.50" arrivalLane="cn_0" arrivalPos="992.80" arrivalSpeed="7.99" duration="256.20" routeLength="1994.90" waitingTime="0.00" waitingCount="0" stopTime="0.00" timeLoss="56.68" rerouteNo="0" devices="tripinfo_E41" vType="typeCar@E41" speedFactor="1.00" vaporized=""/>
    <tripinfo id="E42" depart="68.20" departLane="sc_0" departPos="5.10" departSpeed="10.00" departDelay="38.20" arrival="322.50" arrivalLane="cn_0" arrivalPos="992.80" arrivalSpeed="8.16" duration="254.30" routeLength="1994.90" waitingTime="0.00" waitingCount="0" stopTime="0.00" timeLoss="54.78" rerouteNo="0" devices="tripinfo_E42" vType="typeCar@E42" speedFactor="1.00" vaporized=""/>
    <tripinfo id="E43" depart="71.10" departLane="sc_0" departPos="5.10" departSpeed="10.00" departDelay="40.10" arrival="323.50" arrivalLane="cn_0" arrivalPos="992.80" arrivalSpeed="8.17" duration="252.40" routeLength="1994.90" waitingTime="0.00" waitingCount="0" stopTime="0.00" timeLoss="52.88" rerouteNo="0" devices="tripinfo_E43" vType="typeCar@E43" speedFactor="1.00" vaporized=""/>
    <tripinfo id="E44" depart="74.00" departLane="sc_0" departPos="5.10" departSpeed="10.00" departDelay="42.00" arrival="324.50" arrivalLane="cn_0" arrivalPos="992.80" arrivalSpeed="8.02" duration="250.50" routeLength="1994.90" waitingTime="0.00" waitingCount="0" stopTime="0.00" timeLoss="50.98" rerouteNo="0" devices="tripinfo_E44" vType="typeCar@E44" speedFactor="1.00" vaporized=""/>
    <tripinfo id="E45" depart="35.80" departLane="wc_0" departPos="5.10" departSpeed="10.00" departDelay="2.80" arrival="326.50" arrivalLane="ce_0" arrivalPos="992.80" arrivalSpeed="8.06" duration="290.70" routeLength="1994.90" waitingTime="0.00" waitingCount="0" stopTime="0.00" timeLoss="91.18" rerouteNo="0" devices="tripinfo_E45" vType="typeCar@E45" speedFactor="1.00" vaporized=""/>
    <tripinfo id="E46" depart="76.90" departLane="sc_0" departPos="5.10" departSpeed="10.00" departDelay="43.90" arrival="328.50" arrivalLane="cn_0" arrivalPos="992.80" arrivalSpeed="8.00" duration="251.60" routeLength="1994.90" waitingTime="0.00" waitingCount="0" stopTime="0.00" timeLoss="52.08" rerouteNo="0" devices="tripinfo_E46" vType="typeCar@E46" speedFactor="1.00" vaporized=""/>
    <tripinfo id="E47" depart="38.20" departLane="wc_0" departPos="5.10" departSpeed="10.00" departDelay="4.20" arrival="330.50" arrivalLane="ce_0" arrivalPos="992.80" arrivalSpeed="7.91" duration="292.30" routeLength="1994.90" waitingTime="0.00" waitingCount="0" stopTime="0.00" timeLoss="92.78" rerouteNo="0" devices="tripinfo_E47" vType="typeCar@E47" speedFactor="1.00" vaporized=""/>
    <tripinfo id="E48" depart="79.70" departLane="sc_0" departPos="5.10" departSpeed="10.00" departDelay="45.70" arrival="332.50" arrivalLane="cn_0" arrivalPos="992.80" arrivalSpeed="7.80" duration="252.80" routeLength="1994.90" waitingTime="0.00" waitingCount="0" stopTime="0.00" timeLoss="53.28" rerouteNo="0" devices="tripinfo_E48" vType="typeCar@E48" speedFactor="1.00" vaporized=""/>
    <tripinfo id="E49" depart="40.60" departLane="wc_0" departPos="5.10" departSpeed="10.00" departDelay="5.60" arrival="334.50" arrivalLane="ce_0" arrivalPos="992.80" arrivalSpeed="8.13" duration="293.90" routeLength="1994.90" waitingTime="0.00" waitingCount="0" stopTime="0.00" timeLoss="94.38" rerouteNo="0" devices="tripinfo_E49" vType="typeCar@E49" speedFactor="1.00" vaporized=""/>
    <tripinfo id="F50" depart="82.10" departLane="sc_0" departPos="5.10" departSpeed="10.00" departDelay="46.10" arrival="336.50" arrivalLane="cn_0" arrivalPos="992.80" arrivalSpeed="7.77" duration="254.40" routeLength="1994.90" waitingTime="0.00" waitingCount="0" stopTime="0.00" timeLoss="54.88" rerouteNo="0" devices="tripinfo_F50" vType="typeCar@F50" speedFactor="1.00" vaporized=""/>
    <tripinfo id="F51" depart="84.90" departLane="sc_0" departPos="5.10" departSpeed="10.00" departDelay="47.90" arrival="337.50" arrivalLane="cn_0" arrivalPos="992.80" arrivalSpeed="7.96" duration="252.60" routeLength="1994.90" waitingTime="0.00" waitingCount="0" stopTime="0.00" timeLoss="53.08" rerouteNo="0" devices="tripinfo_F51" vType="typeCar@F51" speedFactor="1.00" vaporized=""/>
    <tripinfo id="F52" depart="87.80" departLane="sc_0" departPos="5.10" departSpeed="10.00" departDelay="49.80" arrival="338.50" arrivalLane="cn_0" arrivalPos="992.80" arrivalSpeed="8.19" duration="250.70" routeLength="1994.90" waitingTime="0.00" waitingCount="0" stopTime="0.00" timeLoss="51.18" rerouteNo="0" devices="tripinfo_F52" vType="typeCar@F52" speedFactor="1.00" vaporized=""/>
    <tripinfo id="F53" depart="43.00" departLane="wc_0" departPos="5.10" departSpeed="10.00" departDelay="4.00" arrival="340.50" arrivalLane="ce_0" arrivalPos="992.80" arrivalSpeed="7.94" duration="297.50" routeLength="1994.90" waitingTime="0.00" waitingCount="0" stopTime="0.00" timeLoss="97.98" rerouteNo="0" devices="tripinfo_F53" vType="typeCar@F53" speedFactor="1.00" vaporized=""/>
    <tripinfo id="F54" depart="90.70" departLane="sc_0" departPos="5.10" departSpeed="10.00" departDelay="51.70" arrival="342.50" arrivalLane="cn_0" arrivalPos="992.80" arrivalSpeed="8.13" duration="251.80" routeLength="1994.90" waitingTime="0.00" waitingCount="0" stopTime="0.00" timeLoss="52.28" rerouteNo="0" devices="tripinfo_F54" vType="typeCar@F54" speedFactor="1.00" vaporized=""/>
    <tripinfo id="F55" depart="93.60" departLane="sc_0" departPos="5.10" departSpeed="10.00" departDelay="53.60" arrival="343.50" arrivalLane="cn_0" arrivalPos="992.80" arrivalSpeed="8.12" duration="249.90" routeLength="1994.90" waitingTime="0.00" waitingCount="0" stopTime="0.00" timeLoss="50.38" rerouteNo="0" devices="tripinfo_F55" vType="typeCar@F55" speedFactor="1.00" vaporized=""/>
    <tripinfo id="F56" depart="45.50" departLane="wc_0" departPos="5.10" departSpeed="10.00" departDelay="3.50" arrival="345.50" arrivalLane="ce_0" arrivalPos="992.80" arrivalSpeed="7.90" duration="300.00" routeLength="1994.90" waitingTime="0.00" waitingCount="0" stopTime="0.00" timeLoss="100.48" rerouteNo="0" devices="tripinfo_F56" vType="typeCar@F56" speedFactor="1.00" vaporized=""/>
    <tripinfo id="F57" depart="96.00" departLane="sc_0" departPos="5.10" departSpeed="10.00" departDelay="54.00" arrival="347.50" arrivalLane="cn_0" arrivalPos="992.80" arrivalSpeed="7.78" duration="251.50" routeLength="1994.90" waitingTime="0.00" waitingCount="0" stopTime="0.00" timeLoss="51.98" rerouteNo="0" devices="tripinfo_F57" vType="typeCar@F57" speedFactor="1.00" vaporized=""/>
    <tripinfo id="F58" depart="98.70" departLane="sc_0" departPos="5.10" departSpeed="10.00" departDelay="55.70" arrival="348.50" arrivalLane="cn_0" arrivalPos="992.80" arrivalSpeed="8.18" duration="249.80" routeLength="1994.90" waitingTime="0.00" waitingCount="0" stopTime="0.00" timeLoss="50.28" rerouteNo="0" devices="tripinfo_F58" vType="typeCar@F58" speedFactor="1.00" vaporized=""/>
    <tripinfo id="F59" depart="47.90" departLane="wc_0" departPos="5.10" departSpeed="10.00" departDelay="3.90" arrival="350.50" arrivalLane="ce_0" arrivalPos="992.80" arrivalSpeed="8.17" duration="302.60" routeLength="1994.90" waitingTime="0.00" waitingCount="0" stopTime="0.00" timeLoss="103.08" rerouteNo="0" devices="tripinfo_F59" vType="typeCar@F59" speedFactor="1.00" vaporized=""/>
    <tripinfo id="G60" depart="100.80" departLane="sc_0" departPos="5.10" departSpeed="10.00" departDelay="56.80" arrival="352.50" arrivalLane="cn_0" arrivalPos="992.80" arrivalSpeed="8.21" duration="251.70" routeLength="1994.90" waitingTime="0.00" waitingCount="0" stopTime="0.00" timeLoss="52.18" rerouteNo="0" devices="tripinfo_G60" vType="typeCar@G60" speedFactor="1.00" vaporized=""/>
    <tripinfo id="G61" depart="50.40" departLane="wc_0" departPos="5.10" departSpeed="10.00" departDelay="5.40" arrival="354.50" arrivalLane="ce_0" arrivalPos="992.80" arrivalSpeed="7.84" duration="304.10" routeLength="1994.90" waitingTime="0.00" waitingCount="0" stopTime="0.00" timeLoss="104.58" rerouteNo="0" devices="tripinfo_G61" vType="typeCar@G61" speedFactor="1.00" vaporized=""/>
    <tripinfo id="G62" depart="103.70" departLane="sc_0" departPos="5.10" departSpeed="10.00" departDelay="58.70" arrival="356.50" arrivalLane="cn_0" arrivalPos="992.80" arrivalSpeed="8.06" duration="252.80" routeLength="1994.90" waitingTime="0.00" waitingCount="0" stopTime="0.00" timeLoss="53.28" rerouteNo="0" devices="tripinfo_G62" vType="typeCar@G62" speedFactor="1.00" vaporized=""/>
    <tripinfo id="G63" depart="106.00" departLane="sc_0" departPos="5.10" departSpeed="10.00" departDelay="60.00" arrival="357.50" arrivalLane="cn_0" arrivalPos="992.80" arrivalSpeed="8.05" duration="251.50" routeLength="1994.90" waitingTime="0.00" waitingCount="0" stopTime="0.00" timeLoss="51.98" rerouteNo="0" devices="tripinfo_G63" vType="typeCar@G63" speedFactor="1.00" vaporized=""/>
    <tripinfo id="G64" depart="52.90" departLane="wc_0" departPos="5.10" departSpeed="10.00" departDelay="5.90" arrival="359.50" arrivalLane="ce_0" arrivalPos="992.80" arrivalSpeed="8.01" duration="306.60" routeLength="1994.90" waitingTime="0.00" waitingCount="0" stopTime="0.00" timeLoss="107.08" rerouteNo="0" devices="tripinfo_G64" vType="typeCar@G64" speedFactor="1.00" vaporized=""/>
    <tripinfo id="G65" depart="108.90" departLane="sc_0" departPos="5.10" departSpeed="10.00" departDelay="61.90" arrival="361.50" arrivalLane="cn_0" arrivalPos="992.80" arrivalSpeed="8.08" duration="252.60" routeLength="1994.90" waitingTime="0.00" waitingCount="0" stopTime="0.00" timeLoss="53.08" rerouteNo="0" devices="tripinfo_G65" vType="typeCar@G65" speedFactor="1.00" vaporized=""/>
    <tripinfo id="G66" depart="111.70" departLane="sc_0" departPos="5.10" departSpeed="10.00" departDelay="63.70" arrival="362.50" arrivalLane="cn_0" arrivalPos="992.80" arrivalSpeed="8.01" duration="250.80" routeLength="1994.90" waitingTime="0.00" waitingCount="0" stopTime="0.00" timeLoss="51.28" rerouteNo="0" devices="tripinfo_G66" vType="typeCar@G66" speedFactor="1.00" vaporized=""/>
    <tripinfo id="G67" depart="55.40" departLane="wc_0" departPos="5.10" departSpeed="10.00" departDelay="5.40" arrival="364.50" arrivalLane="ce_0" arrivalPos="992.80" arrivalSpeed="8.18" duration="309.10" routeLength="1994.90" waitingTime="0.00" waitingCount="0" stopTime="0.00" timeLoss="109.58" rerouteNo="0" devices="tripinfo_G67" vType="typeCar@G67" speedFactor="1.00" vaporized=""/>
    <tripinfo id="G68" depart="114.60" departLane="sc_0" departPos="5.10" departSpeed="10.00" departDelay="64.60" arrival="366.50" arrivalLane="cn_0" arrivalPos="992.80" arrivalSpeed="8.14" duration="251.90" routeLength="1994.90" waitingTime="0.00" waitingCount="0" stopTime="0.00" timeLoss="52.38" rerouteNo="0" devices="tripinfo_G68" vType="typeCar@G68" speedFactor="1.00" vaporized=""/>
    <tripinfo id="G69" depart="117.50" departLane="sc_0" departPos="5.10" departSpeed="10.00" departDelay="66.50" arrival="367.50" arrivalLane="cn_0" arrivalPos="992.80" arrivalSpeed="7.83" duration="250.00" routeLength="1994.90" waitingTime="0.00" waitingCount="0" stopTime="0.00" timeLoss="50.48" rerouteNo="0" devices="tripinfo_G69" vType="typeCar@G69" speedFactor="1.00" vaporized=""/>
    <tripinfo id="H70" depart="57.90" departLane="wc_0" departPos="5.10" departSpeed="10.00" departDelay="5.90" arrival="369.50" arrivalLane="ce_0" arrivalPos="992.80" arrivalSpeed="8.16" duration="311.60" routeLength="1994.90" waitingTime="0.00" waitingCount="0" stopTime="0.00" timeLoss="112.08" rerouteNo="0" devices="tripinfo_H70" vType="typeCar@H70" speedFactor="1.00" vaporized=""/>
    <tripinfo id="H71" depart="120.10" departLane="sc_0" departPos="5.10" departSpeed="10.00" departDelay="68.10" arrival="371.50" arrivalLane="cn_0" arrivalPos="992.80" arrivalSpeed="7.79" duration="251.40" routeLength="1994.90" waitingTime="0.00" waitingCount="0" stopTime="0.00" timeLoss="51.88" rerouteNo="0" devices="tripinfo_H71" vType="typeCar@H71" speedFactor="1.00" vaporized=""/>
    <tripinfo id="H72" depart="60.40" departLane="wc_0" departPos="5.10" departSpeed="10.00" departDelay="7.40" arrival="373.50" arrivalLane="ce_0" arrivalPos="992.80" arrivalSpeed="7.72" duration="313.10" routeLength="1994.90" waitingTime="0.00" waitingCount="0" stopTime="0.00" timeLoss="113.58" rerouteNo="0" devices="tripinfo_H72" vType="typeCar@H72" speedFactor="1.00" vaporized=""/>
    <tripinfo id="H73" depart="122.80" departLane="sc_0" departPos="5.10" departSpeed="10.00" departDelay="69.80" arrival="375.50" arrivalLane="cn_0" arrivalPos="992.80" arrivalSpeed="8.13" duration="252.70" routeLength="1994.90" waitingTime="0.00" waitingCount="0" stopTime="0.00" timeLoss="53.18" rerouteNo="0" devices="tripinfo_H73" vType="typeCar@H73" speedFactor="1.00" vaporized=""/>