<?xml version="1.0" encoding="UTF-8"?>

<!-- generated on 2022-07-30 15:44:30 by Eclipse SUMO GUI Version 1.13.0
<configuration xmlns:xsi="http://www.w3.org/2001/XMLSchema-instance" xsi:noNamespaceSchemaLocation="http://sumo.dlr.de/xsd/sumoConfiguration.xsd">

    <input>
        <net-file value="net.net.xml"/>
        <route-files value="routes.rou.xml"/>
    </input>

    <output>
        <tripinfo-output value="raw_data/(4,3,0)tripinfo.xml"/>
    </output>

    <time>
        <begin value="0"/>
        <step-length value="0.1"/>
    </time>

    <processing>
        <collision.action value="warn"/>
        <collision.stoptime value="1"/>
        <collision.mingap-factor value="1"/>
    </processing>

    <report>
        <verbose value="false"/>
        <log value="log.txt"/>
        <duration-log.statistics value="true"/>
        <no-step-log value="true"/>
    </report>

    <traci_server>
        <remote-port value="12578"/>
    </traci_server>

    <gui_only>
        <tracker-interval value="0.1"/>
    </gui_only>

</configuration>
-->

<tripinfos xmlns:xsi="http://www.w3.org/2001/XMLSchema-instance" xsi:noNamespaceSchemaLocation="http://sumo.dlr.de/xsd/tripinfo_file.xsd">
    <tripinfo id="A0" depart="0.00" departLane="sc_0" departPos="5.10" departSpeed="10.00" departDelay="0.00" arrival="252.50" arrivalLane="cn_0" arrivalPos="992.80" arrivalSpeed="8.13" duration="252.50" routeLength="1994.90" waitingTime="0.00" waitingCount="0" stopTime="0.00" timeLoss="52.98" rerouteNo="0" devices="tripinfo_A0" vType="typeCar@A0" speedFactor="1.00" vaporized=""/>
    <tripinfo id="A1" depart="1.00" departLane="wc_0" departPos="5.10" departSpeed="10.00" departDelay="0.00" arrival="254.50" arrivalLane="ce_0" arrivalPos="992.80" arrivalSpeed="8.04" duration="253.50" routeLength="1994.90" waitingTime="0.00" waitingCount="0" stopTime="0.00" timeLoss="53.98" rerouteNo="0" devices="tripinfo_A1" vType="typeCar@A1" speedFactor="1.00" vaporized=""/>
    <tripinfo id="A2" depart="1.70" departLane="sc_0" departPos="5.10" departSpeed="10.00" departDelay="0.70" arrival="256.50" arrivalLane="cn_0" arrivalPos="992.80" arrivalSpeed="8.15" duration="254.80" routeLength="1994.90" waitingTime="0.00" waitingCount="0" stopTime="0.00" timeLoss="55.28" rerouteNo="0" devices="tripinfo_A2" vType="typeCar@A2" speedFactor="1.00" vaporized=""/>
    <tripinfo id="A3" depart="3.40" departLane="sc_0" departPos="5.10" departSpeed="10.00" departDelay="1.40" arrival="257.50" arrivalLane="cn_0" arrivalPos="992.80" arrivalSpeed="8.03" duration="254.10" routeLength="1994.90" waitingTime="0.00" waitingCount="0" stopTime="0.00" timeLoss="54.58" rerouteNo="0" devices="tripinfo_A3" vType="typeCar@A3" speedFactor="1.00" vaporized=""/>
    <tripinfo id="A4" depart="6.50" departLane="sc_0" departPos="5.10" departSpeed="10.00" departDelay="3.50" arrival="258.50" arrivalLane="cn_0" arrivalPos="992.80" arrivalSpeed="8.09" duration="252.00" routeLength="1994.90" waitingTime="0.00" waitingCount="0" stopTime="0.00" timeLoss="52.48" rerouteNo="0" devices="tripinfo_A4" vType="typeCar@A4" speedFactor="1.00" vaporized=""/>
    <tripinfo id="A5" depart="4.00" departLane="wc_0" departPos="5.10" departSpeed="10.00" departDelay="0.00" arrival="260.50" arrivalLane="ce_0" arrivalPos="992.80" arrivalSpeed="8.01" duration="256.50" routeLength="1994.90" waitingTime="0.00" waitingCount="0" stopTime="0.00" timeLoss="56.98" rerouteNo="0" devices="tripinfo_A5" vType="typeCar@A5" speedFactor="1.00" vaporized=""/>
    <tripinfo id="A6" depart="9.40" departLane="sc_0" departPos="5.10" departSpeed="10.00" departDelay="5.40" arrival="262.50" arrivalLane="cn_0" arrivalPos="992.80" arrivalSpeed="7.91" duration="253.10" routeLength="1994.90" waitingTime="0.00" waitingCount="0" stopTime="0.00" timeLoss="53.58" rerouteNo="0" devices="tripinfo_A6" vType="typeCar@A6" speedFactor="1.00" vaporized=""/>
    <tripinfo id="A7" depart="5.70" departLane="wc_0" departPos="5.10" departSpeed="10.00" departDelay="0.70" arrival="264.50" arrivalLane="ce_0" arrivalPos="992.80" arrivalSpeed="8.12" duration="258.80" routeLength="1994.90" waitingTime="0.00" waitingCount="0" stopTime="0.00" timeLoss="59.28" rerouteNo="0" devices="tripinfo_A7" vType="typeCar@A7" speedFactor="1.00" vaporized=""/>
    <tripinfo id="A8" depart="12.30" departLane="sc_0" departPos="5.10" departSpeed="10.00" departDelay="7.30" arrival="266.50" arrivalLane="cn_0" arrivalPos="992.80" arrivalSpeed="8.21" duration="254.20" routeLength="1994.90" waitingTime="0.00" waitingCount="0" stopTime="0.00" timeLoss="54.68" rerouteNo="0" devices="tripinfo_A8" vType="typeCar@A8" speedFactor="1.00" vaporized=""/>
    <tripinfo id="A9" depart="7.90" departLane="wc_0" departPos="5.10" departSpeed="10.00" departDelay="1.90" arrival="268.50" arrivalLane="ce_0" arrivalPos="992.80" arrivalSpeed="8.11" duration="260.60" routeLength="1994.90" waitingTime="0.00" waitingCount="0" stopTime="0.00" timeLoss="61.08" rerouteNo="0" devices="tripinfo_A9" vType="typeCar@A9" speedFactor="1.00" vaporized=""/>
    <tripinfo id="B10" depart="15.10" departLane="sc_0" departPos="5.10" departSpeed="10.00" departDelay="9.10" arrival="270.50" arrivalLane="cn_0" arrivalPos="992.80" arrivalSpeed="8.06" duration="255.40" routeLength="1994.90" waitingTime="0.00" waitingCount="0" stopTime="0.00" timeLoss="55.88" rerouteNo="0" devices="tripinfo_B10" vType="typeCar@B10" speedFactor="1.00" vaporized=""/>
    <tripinfo id="B11" depart="18.00" departLane="sc_0" departPos="5.10" departSpeed="10.00" departDelay="11.00" arrival="271.50" arrivalLane="cn_0" arrivalPos="992.80" arrivalSpeed="8.09" duration="253.50" routeLength="1994.90" waitingTime="0.00" waitingCount="0" stopTime="0.00" timeLoss="53.98" rerouteNo="0" devices="tripinfo_B11" vType="typeCar@B11" speedFactor="1.00" vaporized=""/>
    <tripinfo id="B12" depart="10.30" departLane="wc_0" departPos="5.10" departSpeed="10.00" departDelay="2.30" arrival="273.50" arrivalLane="ce_0" arrivalPos="992.80" arrivalSpeed="8.17" duration="263.20" routeLength="1994.90" waitingTime="0.00" waitingCount="0" stopTime="0.00" timeLoss="63.68" rerouteNo="0" devices="tripinfo_B12" vType="typeCar@B12" speedFactor="1.00" vaporized=""/>
    <tripinfo id="B13" depart="20.90" departLane="sc_0" departPos="5.10" departSpeed="10.00" departDelay="12.90" arrival="275.50" arrivalLane="cn_0" arrivalPos="992.80" arrivalSpeed="7.89" duration="254.60" routeLength="1994.90" waitingTime="0.00" waitingCount="0" stopTime="0.00" timeLoss="55.08" rerouteNo="0" devices="tripinfo_B13" vType="typeCar@B13" speedFactor="1.00" vaporized=""/>
    <tripinfo id="B14" depart="23.80" departLane="sc_0" departPos="5.10" departSpeed="10.00" departDelay="14.80" arrival="276.50" arrivalLane="cn_0" arrivalPos="992.80" arrivalSpeed="7.90" duration="252.70" routeLength="1994.90" waitingTime="0.00" waitingCount="0" stopTime="0.00" timeLoss="53.18" rerouteNo="0" devices="tripinfo_B14" vType="typeCar@B14" speedFactor="1.00" vaporized=""/>
    <tripinfo id="B15" depart="26.70" departLane="sc_0" departPos="5.10" departSpeed="10.00" departDelay="16.70" arrival="277.50" arrivalLane="cn_0" arrivalPos="992.80" arrivalSpeed="8.19" duration="250.80" routeLength="1994.90" waitingTime="0.00" waitingCount="0" stopTime="0.00" timeLoss="51.28" rerouteNo="0" devices="tripinfo_B15" vType="typeCar@B15" speedFactor="1.00" vaporized=""/>
    <tripinfo id="B16" depart="12.80" departLane="wc_0" departPos="5.10" departSpeed="10.00" departDelay="1.80" arrival="279.50" arrivalLane="ce_0" arrivalPos="992.80" arrivalSpeed="8.19" duration="266.70" routeLength="1994.90" waitingTime="0.00" waitingCount="0" stopTime="0.00" timeLoss="67.18" rerouteNo="0" devices="tripinfo_B16" vType="typeCar@B16" speedFactor="1.00" vaporized=""/>
    <tripinfo id="B17" depart="29.50" departLane="sc_0" departPos="5.10" departSpeed="10.00" departDelay="18.50" arrival="281.50" arrivalLane="cn_0" arrivalPos="992.80" arrivalSpeed="8.15" duration="252.00" routeLength="1994.90" waitingTime="0.00" waitingCount="0" stopTime="0.00" timeLoss="52.48" rerouteNo="0" devices="tripinfo_B17" vType="typeCar@B17" speedFactor="1.00" vaporized=""/>
    <tripinfo id="B18" depart="32.40" departLane="sc_0" departPos="5.10" departSpeed="10.00" departDelay="20.40" arrival="282.50" arrivalLane="cn_0" arrivalPos="992.80" arrivalSpeed="8.09" duration="250.10" routeLength="1994.90" waitingTime="0.00" waitingCount="0" stopTime="0.00" timeLoss="50.58" rerouteNo="0" devices="tripinfo_B18" vType="typeCar@B18" speedFactor="1.00" vaporized=""/>
    <tripinfo id="B19" depart="15.30" departLane="wc_0" departPos="5.10" departSpeed="10.00" departDelay="2.30" arrival="284.50" arrivalLane="ce_0" arrivalPos="992.80" arrivalSpeed="7.98" duration="269.20" routeLength="1994.90" waitingTime="0.00" waitingCount="0" stopTime="0.00" timeLoss="69.68" rerouteNo="0" devices="tripinfo_B19" vType="typeCar@B19" speedFactor="1.00" vaporized=""/>
    <tripinfo id="C20" depart="35.00" departLane="sc_0" departPos="5.10" departSpeed="10.00" departDelay="22.00" arrival="286.50" arrivalLane="cn_0" arrivalPos="992.80" arrivalSpeed="8.09" duration="251.50" routeLength="1994.90" waitingTime="0.00" waitingCount="0" stopTime="0.00" timeLoss="51.98" rerouteNo="0" devices="tripinfo_C20" vType="typeCar@C20" speedFactor="1.00" vaporized=""/>
    <tripinfo id="C21" depart="37.70" departLane="sc_0" departPos="5.10" departSpeed="10.00" departDelay="23.70" arrival="287.50" arrivalLane="cn_0" arrivalPos="992.80" arrivalSpeed="7.84" duration="249.80" routeLength="1994.90" waitingTime="0.00" waitingCount="0" stopTime="0.00" timeLoss="50.28" rerouteNo="0" devices="tripinfo_C21" vType="typeCar@C21" speedFactor="1.00" vaporized=""/>
    <tripinfo id="C22" depart="39.80" departLane="sc_0" departPos="5.10" departSpeed="10.00" departDelay="24.80" arrival="288.50" arrivalLane="cn_0" arrivalPos="992.80" arrivalSpeed="7.83" duration="248.70" routeLength="1994.90" waitingTime="0.00" waitingCount="0" stopTime="0.00" timeLoss="49.18" rerouteNo="0" devices="tripinfo_C22" vType="typeCar@C22" speedFactor="1.00" vaporized=""/>
    <tripinfo id="C23" depart="17.80" departLane="wc_0" departPos="5.10" departSpeed="10.00" departDelay="1.80" arrival="290.50" arrivalLane="ce_0" arrivalPos="992.80" arrivalSpeed="8.14" duration="272.70" routeLength="1994.90" waitingTime="0.00" waitingCount="0" stopTime="0.00" timeLoss="73.18" rerouteNo="0" devices="tripinfo_C23" vType="typeCar@C23" speedFactor="1.00" vaporized=""/>
    <tripinfo id="C24" depart="20.40" departLane="wc_0" departPos="5.10" departSpeed="10.00" departDelay="3.40" arrival="291.50" arrivalLane="ce_0" arrivalPos="992.80" arrivalSpeed="7.97" duration="271.10" routeLength="1994.90" waitingTime="0.00" waitingCount="0" stopTime="0.00" timeLoss="71.58" rerouteNo="0" devices="tripinfo_C24" vType="typeCar@C24" speedFactor="1.00" vaporized=""/>
    <tripinfo id="C25" depart="42.70" departLane="sc_0" departPos="5.10" departSpeed="10.00" departDelay="25.70" arrival="293.50" arrivalLane="cn_0" arrivalPos="992.80" arrivalSpeed="7.90" duration="250.80" routeLength="1994.90" waitingTime="0.00" waitingCount="0" stopTime="0.00" timeLoss="51.28" rerouteNo="0" devices="tripinfo_C25" vType="typeCar@C25" speedFactor="1.00" vaporized=""/>
    <tripinfo id="C26" depart="44.40" departLane="sc_0" departPos="5.10" departSpeed="10.00" departDelay="26.40" arrival="294.50" arrivalLane="cn_0" arrivalPos="992.80" arrivalSpeed="8.17" duration="250.10" routeLength="1994.90" waitingTime="0.00" waitingCount="0" stopTime="0.00" timeLoss="50.58" rerouteNo="0" devices="tripinfo_C26" vType="typeCar@C26" speedFactor="1.00" vaporized=""/>
    <tripinfo id="C27" depart="46.10" departLane="sc_0" departPos="5.10" departSpeed="10.00" departDelay="27.10" arrival="295.50" arrivalLane="cn_0" arrivalPos="992.80" arrivalSpeed="8.14" duration="249.40" routeLength="1994.90" waitingTime="0.00" waitingCount="0" stopTime="0.00" timeLoss="49.88" rerouteNo="0" devices="tripinfo_C27" vType="typeCar@C27" speedFactor="1.00" vaporized=""/>
    <tripinfo id="C28" depart="49.20" departLane="sc_0" departPos="5.10" departSpeed="10.00" departDelay="29.20" arrival="296.50" arrivalLane="cn_0" arrivalPos="992.80" arrivalSpeed="8.03" duration="247.30" routeLength="1994.90" waitingTime="0.00" waitingCount="0" stopTime="0.00" timeLoss="47.78" rerouteNo="0" devices="tripinfo_C28" vType="typeCar@C28" speedFactor="1.00" vaporized=""/>
    <tripinfo id="C29" depart="22.90" departLane="wc_0" departPos="5.10" departSpeed="10.00" departDelay="1.90" arrival="298.50" arrivalLane="ce_0" arrivalPos="992.80" arrivalSpeed="8.09" duration="275.60" routeLength="1994.90" waitingTime="0.00" waitingCount="0" stopTime="0.00" timeLoss="76.08" rerouteNo="0" devices="tripinfo_C29" vType="typeCar@C29" speedFactor="1.00" vaporized=""/>
    <tripinfo id="D30" depart="51.30" departLane="sc_0" departPos="5.10" departSpeed="10.00" departDelay="30.30" arrival="300.50" arrivalLane="cn_0" arrivalPos="992.80" arrivalSpeed="8.05" duration="249.20" routeLength="1994.90" waitingTime="0.00" waitingCount="0" stopTime="0.00" timeLoss="49.68" rerouteNo="0" devices="tripinfo_D30" vType="typeCar@D30" speedFactor="1.00" vaporized=""/>
    <tripinfo id="D31" depart="25.40" departLane="wc_0" departPos="5.10" departSpeed="10.00" departDelay="3.40" arrival="302.50" arrivalLane="ce_0" arrivalPos="992.80" arrivalSpeed="8.03" duration="277.10" routeLength="1994.90" waitingTime="0.00" waitingCount="0" stopTime="0.00" timeLoss="77.58" rerouteNo="0" devices="tripinfo_D31" vType="typeCar@D31" speedFactor="1.00" vaporized=""/>
    <tripinfo id="D32" depart="53.00" departLane="sc_0" departPos="5.10" departSpeed="10.00" departDelay="31.00" arrival="304.50" arrivalLane="cn_0" arrivalPos="992.80" arrivalSpeed="8.09" duration="251.50" routeLength="1994.90" waitingTime="0.00" waitingCount="0" stopTime="0.00" timeLoss="51.98" rerouteNo="0" devices="tripinfo_D32" vType="typeCar@D32" speedFactor="1.00" vaporized=""/>
    <tripinfo id="D33" depart="27.90" departLane="wc_0" departPos="5.10" departSpeed="10.00" departDelay="4.90" arrival="306.50" arrivalLane="ce_0" arrivalPos="992.80" arrivalSpeed="8.00" duration="278.60" routeLength="1994.90" waitingTime="0.00" waitingCount="0" stopTime="0.00" timeLoss="79.08" rerouteNo="0" devices="tripinfo_D33" vType="typeCar@D33" speedFactor="1.00" vaporized=""/>
    <tripinfo id="D34" depart="54.70" departLane="sc_0" departPos="5.10" departSpeed="10.00" departDelay="31.70" arrival="308.50" arrivalLane="cn_0" arrivalPos="992.80" arrivalSpeed="7.88" duration="253.80" routeLength="1994.90" waitingTime="0.00" waitingCount="0" stopTime="0.00" timeLoss="54.28" rerouteNo="0" devices="tripinfo_D34" vType="typeCar@D34" speedFactor="1.00" vaporized=""/>
    <tripinfo id="D35" depart="57.80" departLane="sc_0" departPos="5.10" departSpeed="10.00" departDelay="33.80" arrival="309.50" arrivalLane="cn_0" arrivalPos="992.80" arrivalSpeed="7.97" duration="251.70" routeLength="1994.90" waitingTime="0.00" waitingCount="0" stopTime="0.00" timeLoss="52.18" rerouteNo="0" devices="tripinfo_D35" vType="typeCar@D35" speedFactor="1.00" vaporized=""/>
    <tripinfo id="D36" depart="30.40" departLane="wc_0" departPos="5.10" departSpeed="10.00" departDelay="5.40" arrival="311.50" arrivalLane="ce_0" arrivalPos="992.80" arrivalSpeed="7.84" duration="281.10" routeLength="1994.90" waitingTime="0.00" waitingCount="0" stopTime="0.00" timeLoss="81.58" rerouteNo="0" devices="tripinfo_D36" vType="typeCar@D36" speedFactor="1.00" vaporized=""/>
    <tripinfo id="D37" depart="60.70" departLane="sc_0" departPos="5.10" departSpeed="10.00" departDelay="35.70" arrival="313.50" arrivalLane="cn_0" arrivalPos="992.80" arrivalSpeed="8.10" duration="252.80" routeLength="1994.90" waitingTime="0.00" waitingCount="0" stopTime="0.00" timeLoss="53.28" rerouteNo="0" devices="tripinfo_D37" vType="typeCar@D37" speedFactor="1.00" vaporized=""/>
    <tripinfo id="D38" depart="32.90" departLane="wc_0" departPos="5.10" departSpeed="10.00" departDelay="6.90" arrival="315.50" arrivalLane="ce_0" arrivalPos="992.80" arrivalSpeed="7.85" duration="282.60" routeLength="1994.90" waitingTime="0.00" waitingCount="0" stopTime="0.00" timeLoss="83.08" rerouteNo="0" devices="tripinfo_D38" vType="typeCar@D38" speedFactor="1.00" vaporized=""/>
    <tripinfo id="D39" depart="63.60" departLane="sc_0" departPos="5.10" departSpeed="10.00" departDelay="36.60" arrival="317.50" arrivalLane="cn_0" arrivalPos="992.80" arrivalSpeed="8.01" duration="253.90" routeLength="1994.90" waitingTime="0.00" waitingCount="0" stopTime="0.00" timeLoss="54.38" rerouteNo="0" devices="tripinfo_D39" vType="typeCar@D39" speedFactor="1.00" vaporized=""/>
    <tripinfo id="E40" depart="35.50" departLane="wc_0" departPos="5.10" departSpeed="10.00" departDelay="7.50" arrival="319.50" arrivalLane="ce_0" arrivalPos="992.80" arrivalSpeed="8.02" duration="284.00" routeLength="1994.90" waitingTime="0.00" waitingCount="0" stopTime="0.00" timeLoss="84.48" rerouteNo="0" devices="tripinfo_E40" vType="typeCar@E40" speedFactor="1.00" vaporized=""/>
    <tripinfo id="E41" depart="66.40" departLane="sc_0" departPos="5.10" departSpeed="10.00" departDelay="38.40" arrival="321.50" arrivalLane="cn_0" arrivalPos="992.80" arrivalSpeed="8.03" duration="255.10" routeLength="1994.90" waitingTime="0.00" waitingCount="0" stopTime="0.00" timeLoss="55.58" rerouteNo="0" devices="tripinfo_E41" vType="typeCar@E41" speedFactor="1.00" vaporized=""/>
    <tripinfo id="E42" depart="38.00" departLane="wc_0" departPos="5.10" departSpeed="10.00" departDelay="9.00" arrival="323.50" arrivalLane="ce_0" arrivalPos="992.80" arrivalSpeed="7.93" duration="285.50" routeLength="1994.90" waitingTime="0.00" waitingCount="0" stopTime="0.00" timeLoss="85.98" rerouteNo="0" devices="tripinfo_E42" vType="typeCar@E42" speedFactor="1.00" vaporized=""/>
    <tripinfo id="E43" depart="69.30" departLane="sc_0" departPos="5.10" departSpeed="10.00" departDelay="40.30" arrival="325.50" arrivalLane="cn_0" arrivalPos="992.80" arrivalSpeed="7.87" duration="256.20" routeLength="1994.90" waitingTime="0.00" waitingCount="0" stopTime="0.00" timeLoss="56.68" rerouteNo="0" devices="tripinfo_E43" vType="typeCar@E43" speedFactor="1.00" vaporized=""/>
    <tripinfo id="E44" depart="72.20" departLane="sc_0" departPos="5.10" departSpeed="10.00" departDelay="42.20" arrival="326.50" arrivalLane="cn_0" arrivalPos="992.80" arrivalSpeed="8.16" duration="254.30" routeLength="1994.90" waitingTime="0.00" waitingCount="0" stopTime="0.00" timeLoss="54.78" rerouteNo="0" devices="tripinfo_E44" vType="typeCar@E44" speedFactor="1.00" vaporized=""/>
    <tripinfo id="E45" depart="40.50" departLane="wc_0" departPos="5.10" departSpeed="10.00" departDelay="9.50" arrival="328.50" arrivalLane="ce_0" arrivalPos="992.80" arrivalSpeed="8.09" duration="288.00" routeLength="1994.90" waitingTime="0.00" waitingCount="0" stopTime="0.00" timeLoss="88.48" rerouteNo="0" devices="tripinfo_E45" vType="typeCar@E45" speedFactor="1.00" vaporized=""/>
    <tripinfo id="E46" depart="75.10" departLane="sc_0" departPos="5.10" departSpeed="10.00" departDelay="44.10" arrival="330.50" arrivalLane="cn_0" arrivalPos="992.80" arrivalSpeed="8.01" duration="255.40" routeLength="1994.90" waitingTime="0.00" waitingCount="0" stopTime="0.00" timeLoss="55.88" rerouteNo="0" devices="tripinfo_E46" vType="typeCar@E46" speedFactor="1.00" vaporized=""/>
    <tripinfo id="E47" depart="77.90" departLane="sc_0" departPos="5.10" departSpeed="10.00" departDelay="45.90" arrival="331.50" arrivalLane="cn_0" arrivalPos="992.80" arrivalSpeed="7.99" duration="253.60" routeLength="1994.90" waitingTime="0.00" waitingCount="0" stopTime="0.00" timeLoss="54.08" rerouteNo="0" devices="tripinfo_E47" vType="typeCar@E47" speedFactor="1.00" vaporized=""/>
    <tripinfo id="E48" depart="43.00" departLane="wc_0" departPos="5.10" departSpeed="10.00" departDelay="10.00" arrival="333.50" arrivalLane="ce_0" arrivalPos="992.80" arrivalSpeed="8.15" duration="290.50" routeLength="1994.90" waitingTime="0.00" waitingCount="0" stopTime="0.00" timeLoss="90.98" rerouteNo="0" devices="tripinfo_E48" vType="typeCar@E48" speedFactor="1.00" vaporized=""/>
    <tripinfo id="E49" depart="80.80" departLane="sc_0" departPos="5.10" departSpeed="10.00" departDelay="47.80" arrival="335.50" arrivalLane="cn_0" arrivalPos="992.80" arrivalSpeed="7.99" duration="254.70" routeLength="1994.90" waitingTime="0.00" waitingCount="0" stopTime="0.00" timeLoss="55.18" rerouteNo="0" devices="tripinfo_E49" vType="typeCar@E49" speedFactor="1.00" vaporized=""/>
    <tripinfo id="F50" depart="45.50" departLane="wc_0" departPos="5.10" departSpeed="10.00" departDelay="11.50" arrival="337.50" arrivalLane="ce_0" arrivalPos="992.80" arrivalSpeed="7.93" duration="292.00" routeLength="1994.90" waitingTime="0.00" waitingCount="0" stopTime="0.00" timeLoss="92.48" rerouteNo="0" devices="tripinfo_F50" vType="typeCar@F50" speedFactor="1.00" vaporized=""/>
    <tripinfo id="F51" depart="83.70" departLane="sc_0" departPos="5.10" departSpeed="10.00" departDelay="49.70" arrival="339.50" arrivalLane="cn_0" arrivalPos="992.80" arrivalSpeed="8.03" duration="255.80" routeLength="1994.90" waitingTime="0.00" waitingCount="0" stopTime="0.00" timeLoss="56.28" rerouteNo="0" devices="tripinfo_F51" vType="typeCar@F51" speedFactor="1.00" vaporized=""/>
    <tripinfo id="F52" depart="48.00" departLane="wc_0" departPos="5.10" departSpeed="10.00" departDelay="13.00" arrival="341.50" arrivalLane="ce_0" arrivalPos="992.80" arrivalSpeed="8.04" duration="293.50" routeLength="1994.90" waitingTime="0.00" waitingCount="0" stopTime="0.00" timeLoss="93.98" rerouteNo="0" devices="tripinfo_F52" vType="typeCar@F52" speedFactor="1.00" vaporized=""/>
    <tripinfo id="F53" depart="86.60" departLane="sc_0" departPos="5.10" departSpeed="10.00" departDelay="50.60" arrival="343.50" arrivalLane="cn_0" arrivalPos="992.80" arrivalSpeed="7.91" duration="256.90" routeLength="1994.90" waitingTime="0.00" waitingCount="0" stopTime="0.00" timeLoss="57.38" rerouteNo="0" devices="tripinfo_F53" vType="typeCar@F53" speedFactor="1.00" vaporized=""/>
    <tripinfo id="F54" depart="89.50" departLane="sc_0" departPos="5.10" departSpeed="10.00" departDelay="52.50" arrival="344.50" arrivalLane="cn_0" arrivalPos="992.80" arrivalSpeed="8.10" duration="255.00" routeLength="1994.90" waitingTime="0.00" waitingCount="0" stopTime="0.00" timeLoss="55.48" rerouteNo="0" devices="tripinfo_F54" vType="typeCar@F54" speedFactor="1.00" vaporized=""/>
    <tripinfo id="F55" depart="92.30" departLane="sc_0" departPos="5.10" departSpeed="10.00" departDelay="54.30" arrival="345.50" arrivalLane="cn_0" arrivalPos="992.80" arrivalSpeed="7.93" duration="253.20" routeLength="1994.90" waitingTime="0.00" waitingCount="0" stopTime="0.00" timeLoss="53.68" rerouteNo="0" devices="tripinfo_F55" vType="typeCar@F55" speedFactor="1.00" vaporized=""/>
    <tripinfo id="F56" depart="50.50" departLane="wc_0" departPos="5.10" departSpeed="10.00" departDelay="11.50" arrival="347.50" arrivalLane="ce_0" arrivalPos="992.80" arrivalSpeed="8.02" duration="297.00" routeLength="1994.90" waitingTime="0.00" waitingCount="0" stopTime="0.00" timeLoss="97.48" rerouteNo="0" devices="tripinfo_F56" vType="typeCar@F56" speedFactor="1.00" vaporized=""/>
    <tripinfo id="F57" depart="95.20" departLane="sc_0" departPos="5.10" departSpeed="10.00" departDelay="56.20" arrival="349.50" arrivalLane="cn_0" arrivalPos="992.80" arrivalSpeed="8.15" duration="254.30" routeLength="1994.90" waitingTime="0.00" waitingCount="0" stopTime="0.00" timeLoss="54.78" rerouteNo="0" devices="tripinfo_F57" vType="typeCar@F57" speedFactor="1.00" vaporized=""/>
    <tripinfo id="F58" depart="53.00" departLane="wc_0" departPos="5.10" departSpeed="10.00" departDelay="13.00" arrival="351.50" arrivalLane="ce_0" arrivalPos="992.80" arrivalSpeed="8.21" duration="298.50" routeLength="1994.90" waitingTime="0.00" waitingCount="0" stopTime="0.00" timeLoss="98.98" rerouteNo="0" devices="tripinfo_F58" vType="typeCar@F58" speedFactor="1.00" vaporized=""/>
    <tripinfo id="F59" depart="98.10" departLane="sc_0" departPos="5.10" departSpeed="10.00" departDelay="58.10" arrival="353.50" arrivalLane="cn_0" arrivalPos="992.80" arrivalSpeed="7.97" duration="255.40" routeLength="1994.90" waitingTime="0.00" waitingCount="0" stopTime="0.00" timeLoss="55.88" rerouteNo="0" devices="tripinfo_F59" vType="typeCar@F59" speedFactor="1.00" vaporized=""/>
    <tripinfo id="G60" depart="55.50" departLane="wc_0" departPos="5.10" departSpeed="10.00" departDelay="14.50" arrival="355.50" arrivalLane="ce_0" arrivalPos="992.80" arrivalSpeed="8.17" duration="300.00" routeLength="1994.90" waitingTime="0.00" waitingCount="0" stopTime="0.00" timeLoss="100.48" rerouteNo="0" devices="tripinfo_G60" vType="typeCar@G60" speedFactor="1.00" vaporized=""/>
    <tripinfo id="G61" depart="58.00" departLane="wc_0" departPos="5.10" departSpeed="10.00" departDelay="16.00" arrival="356.50" arrivalLane="ce_0" arrivalPos="992.80" arrivalSpeed="7.79" duration="298.50" routeLength="1994.90" waitingTime="0.00" waitingCount="0" stopTime="0.00" timeLoss="98.98" rerouteNo="0" devices="tripinfo_G61" vType="typeCar@G61" speedFactor="1.00" vaporized=""/>
    <tripinfo id="G62" depart="101.00" departLane="sc_0" departPos="5.10" departSpeed="10.00" departDelay="59.00" arrival="358.50" arrivalLane="cn_0" arrivalPos="992.80" arrivalSpeed="8.11" duration="257.50" routeLength="1994.90" waitingTime="0.00" waitingCount="0" stopTime="0.00" timeLoss="57.98" rerouteNo="0" devices="tripinfo_G62" vType="typeCar@G62" speedFactor="1.00" vaporized=""/>
    <tripinfo id="G63" depart="103.80" departLane="sc_0" departPos="5.10" departSpeed="10.00" departDelay="60.80" arrival="359.50" arrivalLane="cn_0" arrivalPos="992.80" arrivalSpeed="7.82" duration="255.70" routeLength="1994.90" waitingTime="0.00" waitingCount="0" stopTime="0.00" timeLoss="56.18" rerouteNo="0" devices="tripinfo_G63" vType="typeCar@G63" speedFactor="1.00" vaporized=""/>
    <tripinfo id="G64" depart="60.50" departLane="wc_0" departPos="5.10" departSpeed="10.00" departDelay="16.50" arrival="361.50" arrivalLane="ce_0" arrivalPos="992.80" arrivalSpeed="8.04" duration="301.00" routeLength="1994.90" waitingTime="0.00" waitingCount="0" stopTime="0.00" timeLoss="101.48" rerouteNo="0" devices="tripinfo_G64" vType="typeCar@G64" speedFactor="1.00" vaporized=""/>
    <tripinfo id="G65" depart="106.70" departLane="sc_0" departPos="5.10" departSpeed="10.00" departDelay="62.70" arrival="363.50" arrivalLane="cn_0" arrivalPos="992.80" arrivalSpeed="8.21" duration="256.80" routeLength="1994.90" waitingTime="0.00" waitingCount="0" stopTime="0.00" timeLoss="57.28" rerouteNo="0" devices="tripinfo_G65" vType="typeCar@G65" speedFactor="1.00" vaporized=""/>
    <tripinfo id="G66" depart="63.00" departLane="wc_0" departPos="5.10" departSpeed="10.00" departDelay="18.00" arrival="365.50" arrivalLane="ce_0" arrivalPos="992.80" arrivalSpeed="8.09" duration="302.50" routeLength="1994.90" waitingTime="0.00" waitingCount="0" stopTime="0.00" timeLoss="102.98" rerouteNo="0" devices="tripinfo_G66" vType="typeCar@G66" speedFactor="1.00" vaporized=""/>
    <tripinfo id="G67" depart="109.60" departLane="sc_0" departPos="5.10" departSpeed="10.00" departDelay="64.60" arrival="367.50" arrivalLane="cn_0" arrivalPos="992.80" arrivalSpeed="7.93" duration="257.90" routeLength="1994.90" waitingTime="0.00" waitingCount="0" stopTime="0.00" timeLoss="58.38" rerouteNo="0" devices="tripinfo_G67" vType="typeCar@G67" speedFactor="1.00" vaporized=""/>
    <tripinfo id="G68" depart="112.50" departLane="sc_0" departPos="5.10" departSpeed="10.00" departDelay="66.50" arrival="368.50" arrivalLane="cn_0" arrivalPos="992.80" arrivalSpeed="7.73" duration="256.00" routeLength="1994.90" waitingTime="0.00" waitingCount="0" stopTime="0.00" timeLoss="56.48" rerouteNo="0" devices="tripinfo_G68" vType="typeCar@G68" speedFactor="1.00" vaporized=""/>
    <tripinfo id="G69" depart="65.50" departLane="wc_0" departPos="5.10" departSpeed="10.00" departDelay="18.50" arrival="370.50" arrivalLane="ce_0" arrivalPos="992.80" arrivalSpeed="7.82" duration="305.00" routeLength="1994.90" waitingTime="0.00" waitingCount="0" stopTime="0.00" timeLoss="105.48" rerouteNo="0" devices="tripinfo_G69" vType="typeCar@G69" speedFactor="1.00" vaporized=""/>
    <tripinfo id="H70" depart="115.30" departLane="sc_0" departPos="5.10" departSpeed="10.00" departDelay="68.30" arrival="372.50" arrivalLane="cn_0" arrivalPos="992.80" arrivalSpeed="8.16" duration="257.20" routeLength="1994.90" waitingTime="0.00" waitingCount="0" stopTime="0.00" timeLoss="57.68" rerouteNo="0" devices="tripinfo_H70" vType="typeCar@H70" speedFactor="1.00" vaporized=""/>
    <tripinfo id="H71" depart="118.20" departLane="sc_0" departPos="5.10" departSpeed="10.00" departDelay="70.20" arrival="373.50" arrivalLane="cn_0" arrivalPos="992.80" arrivalSpeed="8.18" duration="255.30" routeLength="1994.90" waitingTime="0.00" waitingCount="0" stopTime="0.00" timeLoss="55.78" rerouteNo="0" devices="tripinfo_H71" vType="typeCar@H71" speedFactor="1.00" vaporized=""/>
    <tripinfo id="H72" depart="68.00" departLane="wc_0" departPos="5.10" departSpeed="10.00" departDelay="18.00" arrival="375.50" arrivalLane="ce_0" arrivalPos="992.80" arrivalSpeed="7.85" duration="307.50" routeLength="1994.90" waitingTime="0.00" waitingCount="0" stopTime="0.00" timeLoss="107.98" rerouteNo="0" devices="tripinfo_H72" vType="typeCar@H72" speedFactor="1.00" vaporized=""/>
    <tripinfo id="H73" depart="121.10" departLane="sc_0" departPos="5.10" departSpeed="10.00" departDelay="71.10" arrival="377.50" arrivalLane="cn_0" arrivalPos="992.80" arrivalSpeed="7.94" duration="256.40" routeLength="1994.90" waitingTime="0.00" waitingCount="0" stopTime="0.00" timeLoss="56.88" rerouteNo="0" devices="tripinfo_H73" vType="typeCar@H73" speedFactor="1.00" vaporized=""/>